Title: *** advanced.cir ***
Date: Mon Mar  9 15:00:04  2015
Plotname: Transient Analysis
Flags: real
No. Variables: 2
No. Points: 10000
Variables:
	0	time	time
	1	v(c8)	voltage
Values:
 0	1.280000000000000e-10
	1.104758850385518e+01

 1	2.280000000000000e-10
	1.104758850356035e+01

 2	3.280000000000001e-10
	1.104758850347533e+01

 3	4.280000000000001e-10
	1.104758850347513e+01

 4	5.280000000000000e-10
	1.104758850350762e+01

 5	6.280000000000000e-10
	1.104758850355205e+01

 6	7.280000000000000e-10
	1.104758850359931e+01

 7	8.279999999999999e-10
	1.104758850364594e+01

 8	9.279999999999999e-10
	1.104758850369048e+01

 9	1.028000000000000e-09
	1.104758850373269e+01

 10	1.128000000000000e-09
	1.104758850377262e+01

 11	1.228000000000000e-09
	1.104758850381060e+01

 12	1.328000000000000e-09
	1.104758850384698e+01

 13	1.428000000000000e-09
	1.104758850388214e+01

 14	1.528000000000000e-09
	1.104758850391646e+01

 15	1.628000000000000e-09
	1.104758850395028e+01

 16	1.728000000000000e-09
	1.104758850398393e+01

 17	1.828000000000001e-09
	1.104758850401768e+01

 18	1.928000000000000e-09
	1.104758850405175e+01

 19	2.028000000000000e-09
	1.104758850408636e+01

 20	2.128000000000001e-09
	1.104758850412172e+01

 21	2.228000000000001e-09
	1.104758850415796e+01

 22	2.328000000000001e-09
	1.104758850419520e+01

 23	2.428000000000001e-09
	1.104758850423356e+01

 24	2.528000000000001e-09
	1.104758850427308e+01

 25	2.628000000000001e-09
	1.104758850431383e+01

 26	2.728000000000001e-09
	1.104758850435581e+01

 27	2.828000000000001e-09
	1.104758850439908e+01

 28	2.928000000000001e-09
	1.104758850444362e+01

 29	3.028000000000001e-09
	1.104758850448939e+01

 30	3.128000000000001e-09
	1.104758850453633e+01

 31	3.228000000000001e-09
	1.104758850458440e+01

 32	3.328000000000001e-09
	1.104758850463352e+01

 33	3.428000000000001e-09
	1.104758850468361e+01

 34	3.528000000000001e-09
	1.104758850473455e+01

 35	3.628000000000002e-09
	1.104758850478626e+01

 36	3.728000000000001e-09
	1.104758850483860e+01

 37	3.828000000000001e-09
	1.104758850489146e+01

 38	3.928000000000001e-09
	1.104758850494471e+01

 39	4.028000000000001e-09
	1.104758850499821e+01

 40	4.128000000000001e-09
	1.104758850505178e+01

 41	4.228000000000002e-09
	1.104758850510529e+01

 42	4.328000000000002e-09
	1.104758850515861e+01

 43	4.428000000000002e-09
	1.104758850521156e+01

 44	4.528000000000002e-09
	1.104758850526398e+01

 45	4.628000000000002e-09
	1.104758850531572e+01

 46	4.728000000000002e-09
	1.104758850536663e+01

 47	4.828000000000002e-09
	1.104758850541654e+01

 48	4.928000000000002e-09
	1.104758850546528e+01

 49	5.028000000000002e-09
	1.104758850551270e+01

 50	5.128000000000002e-09
	1.104758850555866e+01

 51	5.228000000000002e-09
	1.104758850560299e+01

 52	5.328000000000002e-09
	1.104758850564554e+01

 53	5.428000000000002e-09
	1.104758850568614e+01

 54	5.528000000000002e-09
	1.104758850572470e+01

 55	5.628000000000002e-09
	1.104758850576103e+01

 56	5.728000000000003e-09
	1.104758850579502e+01

 57	5.828000000000003e-09
	1.104758850582657e+01

 58	5.928000000000003e-09
	1.104758850585554e+01

 59	6.028000000000003e-09
	1.104758850588183e+01

 60	6.128000000000003e-09
	1.104758850590535e+01

 61	6.228000000000003e-09
	1.104758850592596e+01

 62	6.328000000000003e-09
	1.104758850594361e+01

 63	6.428000000000003e-09
	1.104758850595820e+01

 64	6.528000000000003e-09
	1.104758850596967e+01

 65	6.628000000000003e-09
	1.104758850597796e+01

 66	6.728000000000003e-09
	1.104758850598300e+01

 67	6.828000000000003e-09
	1.104758850598475e+01

 68	6.928000000000003e-09
	1.104758850598319e+01

 69	7.028000000000003e-09
	1.104758850597826e+01

 70	7.128000000000004e-09
	1.104758850597000e+01

 71	7.228000000000004e-09
	1.104758850595841e+01

 72	7.328000000000004e-09
	1.104758850594347e+01

 73	7.428000000000004e-09
	1.104758850592522e+01

 74	7.528000000000003e-09
	1.104758850590366e+01

 75	7.628000000000002e-09
	1.104758850587886e+01

 76	7.728000000000001e-09
	1.104758850585087e+01

 77	7.828000000000001e-09
	1.104758850581974e+01

 78	7.928000000000000e-09
	1.104758850578555e+01

 79	8.027999999999999e-09
	1.104758850574833e+01

 80	8.127999999999998e-09
	1.104758850570820e+01

 81	8.227999999999998e-09
	1.104758850566529e+01

 82	8.327999999999997e-09
	1.104758850561970e+01

 83	8.427999999999996e-09
	1.104758850557151e+01

 84	8.527999999999995e-09
	1.104758850552090e+01

 85	8.627999999999995e-09
	1.104758850546799e+01

 86	8.727999999999994e-09
	1.104758850541289e+01

 87	8.827999999999993e-09
	1.104758850535576e+01

 88	8.927999999999992e-09
	1.104758850529678e+01

 89	9.027999999999992e-09
	1.104758850523610e+01

 90	9.127999999999991e-09
	1.104758850517388e+01

 91	9.227999999999990e-09
	1.104758850511031e+01

 92	9.327999999999989e-09
	1.104758850504558e+01

 93	9.427999999999989e-09
	1.104758850497989e+01

 94	9.527999999999988e-09
	1.104758850491342e+01

 95	9.627999999999987e-09
	1.104758850484635e+01

 96	9.727999999999986e-09
	1.104758850477889e+01

 97	9.827999999999986e-09
	1.104758850471126e+01

 98	9.927999999999985e-09
	1.104758850464365e+01

 99	1.002799999999998e-08
	1.104758850457627e+01

 100	1.012799999999998e-08
	1.104758850450932e+01

 101	1.022799999999998e-08
	1.104758850444300e+01

 102	1.032799999999998e-08
	1.104758850437753e+01

 103	1.042799999999998e-08
	1.104758850431309e+01

 104	1.052799999999998e-08
	1.104758850424992e+01

 105	1.062799999999998e-08
	1.104758850418820e+01

 106	1.072799999999998e-08
	1.104758850412812e+01

 107	1.082799999999998e-08
	1.104758850406990e+01

 108	1.092799999999998e-08
	1.104758850401371e+01

 109	1.102799999999998e-08
	1.104758850395976e+01

 110	1.112799999999998e-08
	1.104758850390823e+01

 111	1.122799999999997e-08
	1.104758850385926e+01

 112	1.132799999999997e-08
	1.104758850381303e+01

 113	1.142799999999997e-08
	1.104758850376971e+01

 114	1.152799999999997e-08
	1.104758850372945e+01

 115	1.162799999999997e-08
	1.104758850369240e+01

 116	1.172799999999997e-08
	1.104758850365868e+01

 117	1.182799999999997e-08
	1.104758850362843e+01

 118	1.192799999999997e-08
	1.104758850360180e+01

 119	1.202799999999997e-08
	1.104758850357883e+01

 120	1.212799999999997e-08
	1.104758850355966e+01

 121	1.222799999999997e-08
	1.104758850354437e+01

 122	1.232799999999997e-08
	1.104758850353303e+01

 123	1.242799999999997e-08
	1.104758850352570e+01

 124	1.252799999999997e-08
	1.104758850352245e+01

 125	1.262799999999996e-08
	1.104758850352329e+01

 126	1.272799999999996e-08
	1.104758850352826e+01

 127	1.282799999999996e-08
	1.104758850353740e+01

 128	1.292799999999996e-08
	1.104758850355068e+01

 129	1.302799999999996e-08
	1.104758850356812e+01

 130	1.312799999999996e-08
	1.104758850358967e+01

 131	1.322799999999996e-08
	1.104758850361529e+01

 132	1.332799999999996e-08
	1.104758850364495e+01

 133	1.342799999999996e-08
	1.104758850367859e+01

 134	1.352799999999996e-08
	1.104758850371614e+01

 135	1.362799999999996e-08
	1.104758850375751e+01

 136	1.372799999999996e-08
	1.104758850380259e+01

 137	1.382799999999996e-08
	1.104758850385129e+01

 138	1.392799999999995e-08
	1.104758850390347e+01

 139	1.402799999999995e-08
	1.104758850395901e+01

 140	1.412799999999995e-08
	1.104758850401777e+01

 141	1.422799999999995e-08
	1.104758850407958e+01

 142	1.432799999999995e-08
	1.104758850414427e+01

 143	1.442799999999995e-08
	1.104758850421167e+01

 144	1.452799999999995e-08
	1.104758850428162e+01

 145	1.462799999999995e-08
	1.104758850435390e+01

 146	1.472799999999995e-08
	1.104758850442833e+01

 147	1.482799999999995e-08
	1.104758850450467e+01

 148	1.492799999999995e-08
	1.104758850458273e+01

 149	1.502799999999995e-08
	1.104758850466228e+01

 150	1.512799999999995e-08
	1.104758850474304e+01

 151	1.522799999999995e-08
	1.104758850482484e+01

 152	1.532799999999995e-08
	1.104758850490740e+01

 153	1.542799999999995e-08
	1.104758850499049e+01

 154	1.552799999999995e-08
	1.104758850507387e+01

 155	1.562799999999995e-08
	1.104758850515728e+01

 156	1.572799999999995e-08
	1.104758850524044e+01

 157	1.582799999999995e-08
	1.104758850532311e+01

 158	1.592799999999996e-08
	1.104758850540506e+01

 159	1.602799999999996e-08
	1.104758850548601e+01

 160	1.612799999999996e-08
	1.104758850556569e+01

 161	1.622799999999996e-08
	1.104758850564390e+01

 162	1.632799999999996e-08
	1.104758850572037e+01

 163	1.642799999999996e-08
	1.104758850579485e+01

 164	1.652799999999996e-08
	1.104758850586710e+01

 165	1.662799999999996e-08
	1.104758850593688e+01

 166	1.672799999999996e-08
	1.104758850600395e+01

 167	1.682799999999996e-08
	1.104758850606811e+01

 168	1.692799999999996e-08
	1.104758850612914e+01

 169	1.702799999999997e-08
	1.104758850618682e+01

 170	1.712799999999997e-08
	1.104758850624094e+01

 171	1.722799999999997e-08
	1.104758850629133e+01

 172	1.732799999999997e-08
	1.104758850633779e+01

 173	1.742799999999997e-08
	1.104758850638018e+01

 174	1.752799999999997e-08
	1.104758850641831e+01

 175	1.762799999999997e-08
	1.104758850645206e+01

 176	1.772799999999997e-08
	1.104758850648127e+01

 177	1.782799999999997e-08
	1.104758850650583e+01

 178	1.792799999999997e-08
	1.104758850652563e+01

 179	1.802799999999997e-08
	1.104758850654059e+01

 180	1.812799999999998e-08
	1.104758850655060e+01

 181	1.822799999999998e-08
	1.104758850655561e+01

 182	1.832799999999998e-08
	1.104758850655555e+01

 183	1.842799999999998e-08
	1.104758850655039e+01

 184	1.852799999999998e-08
	1.104758850654015e+01

 185	1.862799999999998e-08
	1.104758850652476e+01

 186	1.872799999999998e-08
	1.104758850650427e+01

 187	1.882799999999998e-08
	1.104758850647870e+01

 188	1.892799999999998e-08
	1.104758850644807e+01

 189	1.902799999999998e-08
	1.104758850641244e+01

 190	1.912799999999998e-08
	1.104758850637190e+01

 191	1.922799999999999e-08
	1.104758850632654e+01

 192	1.932799999999999e-08
	1.104758850627646e+01

 193	1.942799999999999e-08
	1.104758850622177e+01

 194	1.952799999999999e-08
	1.104758850616260e+01

 195	1.962799999999999e-08
	1.104758850609910e+01

 196	1.972799999999999e-08
	1.104758850603141e+01

 197	1.982799999999999e-08
	1.104758850595973e+01

 198	1.992799999999999e-08
	1.104758850588423e+01

 199	2.002799999999999e-08
	1.104758850580512e+01

 200	2.012799999999999e-08
	1.104758850572263e+01

 201	2.022799999999999e-08
	1.104758850563699e+01

 202	2.032800000000000e-08
	1.104758850554840e+01

 203	2.042800000000000e-08
	1.104758850545713e+01

 204	2.052800000000000e-08
	1.104758850536343e+01

 205	2.062800000000000e-08
	1.104758850526757e+01

 206	2.072800000000000e-08
	1.104758850516984e+01

 207	2.082800000000000e-08
	1.104758850507051e+01

 208	2.092800000000000e-08
	1.104758850496988e+01

 209	2.102800000000000e-08
	1.104758850486825e+01

 210	2.112800000000000e-08
	1.104758850476590e+01

 211	2.122800000000000e-08
	1.104758850466315e+01

 212	2.132800000000000e-08
	1.104758850456030e+01

 213	2.142800000000000e-08
	1.104758850445768e+01

 214	2.152800000000001e-08
	1.104758850435559e+01

 215	2.162800000000001e-08
	1.104758850425435e+01

 216	2.172800000000001e-08
	1.104758850415426e+01

 217	2.182800000000001e-08
	1.104758850405563e+01

 218	2.192800000000001e-08
	1.104758850395880e+01

 219	2.202800000000001e-08
	1.104758850386406e+01

 220	2.212800000000001e-08
	1.104758850377173e+01

 221	2.222800000000001e-08
	1.104758850368209e+01

 222	2.232800000000001e-08
	1.104758850359545e+01

 223	2.242800000000001e-08
	1.104758850351205e+01

 224	2.252800000000001e-08
	1.104758850343219e+01

 225	2.262800000000002e-08
	1.104758850335617e+01

 226	2.272800000000002e-08
	1.104758850328424e+01

 227	2.282800000000002e-08
	1.104758850321664e+01

 228	2.292800000000002e-08
	1.104758850315358e+01

 229	2.302800000000002e-08
	1.104758850309531e+01

 230	2.312800000000002e-08
	1.104758850304204e+01

 231	2.322800000000002e-08
	1.104758850299397e+01

 232	2.332800000000002e-08
	1.104758850295128e+01

 233	2.342800000000002e-08
	1.104758850291414e+01

 234	2.352800000000002e-08
	1.104758850288271e+01

 235	2.362800000000002e-08
	1.104758850285715e+01

 236	2.372800000000003e-08
	1.104758850283756e+01

 237	2.382800000000003e-08
	1.104758850282404e+01

 238	2.392800000000003e-08
	1.104758850281667e+01

 239	2.402800000000003e-08
	1.104758850281550e+01

 240	2.412800000000003e-08
	1.104758850282060e+01

 241	2.422800000000003e-08
	1.104758850283201e+01

 242	2.432800000000003e-08
	1.104758850284974e+01

 243	2.442800000000003e-08
	1.104758850287378e+01

 244	2.452800000000003e-08
	1.104758850290410e+01

 245	2.462800000000003e-08
	1.104758850294067e+01

 246	2.472800000000003e-08
	1.104758850298341e+01

 247	2.482800000000004e-08
	1.104758850303221e+01

 248	2.492800000000004e-08
	1.104758850308702e+01

 249	2.502800000000004e-08
	1.104758850314768e+01

 250	2.512800000000004e-08
	1.104758850321404e+01

 251	2.522800000000004e-08
	1.104758850328597e+01

 252	2.532800000000004e-08
	1.104758850336325e+01

 253	2.542800000000004e-08
	1.104758850344573e+01

 254	2.552800000000004e-08
	1.104758850353317e+01

 255	2.562800000000004e-08
	1.104758850362536e+01

 256	2.572800000000004e-08
	1.104758850372206e+01

 257	2.582800000000004e-08
	1.104758850382299e+01

 258	2.592800000000005e-08
	1.104758850392787e+01

 259	2.602800000000005e-08
	1.104758850403641e+01

 260	2.612800000000005e-08
	1.104758850414833e+01

 261	2.622800000000005e-08
	1.104758850426331e+01

 262	2.632800000000005e-08
	1.104758850438099e+01

 263	2.642800000000005e-08
	1.104758850450106e+01

 264	2.652800000000005e-08
	1.104758850462317e+01

 265	2.662800000000005e-08
	1.104758850474698e+01

 266	2.672800000000005e-08
	1.104758850487210e+01

 267	2.682800000000005e-08
	1.104758850499815e+01

 268	2.692800000000005e-08
	1.104758850512479e+01

 269	2.702800000000006e-08
	1.104758850525162e+01

 270	2.712800000000006e-08
	1.104758850537825e+01

 271	2.722800000000006e-08
	1.104758850550430e+01

 272	2.732800000000006e-08
	1.104758850562935e+01

 273	2.742800000000006e-08
	1.104758850575307e+01

 274	2.752800000000006e-08
	1.104758850587506e+01

 275	2.762800000000006e-08
	1.104758850599491e+01

 276	2.772800000000006e-08
	1.104758850611227e+01

 277	2.782800000000006e-08
	1.104758850622673e+01

 278	2.792800000000006e-08
	1.104758850633795e+01

 279	2.802800000000006e-08
	1.104758850644554e+01

 280	2.812800000000006e-08
	1.104758850654916e+01

 281	2.822800000000007e-08
	1.104758850664849e+01

 282	2.832800000000007e-08
	1.104758850674317e+01

 283	2.842800000000007e-08
	1.104758850683290e+01

 284	2.852800000000007e-08
	1.104758850691734e+01

 285	2.862800000000007e-08
	1.104758850699621e+01

 286	2.872800000000007e-08
	1.104758850706923e+01

 287	2.882800000000007e-08
	1.104758850713612e+01

 288	2.892800000000007e-08
	1.104758850719665e+01

 289	2.902800000000007e-08
	1.104758850725059e+01

 290	2.912800000000007e-08
	1.104758850729770e+01

 291	2.922800000000007e-08
	1.104758850733783e+01

 292	2.932800000000008e-08
	1.104758850737079e+01

 293	2.942800000000008e-08
	1.104758850739641e+01

 294	2.952800000000008e-08
	1.104758850741457e+01

 295	2.962800000000008e-08
	1.104758850742517e+01

 296	2.972800000000008e-08
	1.104758850742811e+01

 297	2.982800000000008e-08
	1.104758850742331e+01

 298	2.992800000000008e-08
	1.104758850741074e+01

 299	3.002800000000008e-08
	1.104758850739040e+01

 300	3.012800000000008e-08
	1.104758850736228e+01

 301	3.022800000000008e-08
	1.104758850732639e+01

 302	3.032800000000008e-08
	1.104758850728281e+01

 303	3.042800000000009e-08
	1.104758850723159e+01

 304	3.052800000000009e-08
	1.104758850717287e+01

 305	3.062800000000009e-08
	1.104758850710674e+01

 306	3.072800000000009e-08
	1.104758850703337e+01

 307	3.082800000000009e-08
	1.104758850695290e+01

 308	3.092800000000009e-08
	1.104758850686553e+01

 309	3.102800000000009e-08
	1.104758850677150e+01

 310	3.112800000000009e-08
	1.104758850667102e+01

 311	3.122800000000009e-08
	1.104758850656435e+01

 312	3.132800000000009e-08
	1.104758850645179e+01

 313	3.142800000000009e-08
	1.104758850633362e+01

 314	3.152800000000010e-08
	1.104758850621019e+01

 315	3.162800000000010e-08
	1.104758850608180e+01

 316	3.172800000000010e-08
	1.104758850594880e+01

 317	3.182800000000010e-08
	1.104758850581157e+01

 318	3.192800000000010e-08
	1.104758850567051e+01

 319	3.202800000000010e-08
	1.104758850552602e+01

 320	3.212800000000010e-08
	1.104758850537850e+01

 321	3.222800000000010e-08
	1.104758850522838e+01

 322	3.232800000000010e-08
	1.104758850507611e+01

 323	3.242800000000010e-08
	1.104758850492211e+01

 324	3.252800000000010e-08
	1.104758850476685e+01

 325	3.262800000000011e-08
	1.104758850461080e+01

 326	3.272800000000011e-08
	1.104758850445444e+01

 327	3.282800000000011e-08
	1.104758850429823e+01

 328	3.292800000000011e-08
	1.104758850414264e+01

 329	3.302800000000011e-08
	1.104758850398814e+01

 330	3.312800000000011e-08
	1.104758850383521e+01

 331	3.322800000000011e-08
	1.104758850368433e+01

 332	3.332800000000011e-08
	1.104758850353599e+01

 333	3.342800000000011e-08
	1.104758850339065e+01

 334	3.352800000000011e-08
	1.104758850324878e+01

 335	3.362800000000011e-08
	1.104758850311082e+01

 336	3.372800000000012e-08
	1.104758850297724e+01

 337	3.382800000000012e-08
	1.104758850284846e+01

 338	3.392800000000012e-08
	1.104758850272490e+01

 339	3.402800000000012e-08
	1.104758850260702e+01

 340	3.412800000000012e-08
	1.104758850249516e+01

 341	3.422800000000012e-08
	1.104758850238974e+01

 342	3.432800000000012e-08
	1.104758850229114e+01

 343	3.442800000000012e-08
	1.104758850219968e+01

 344	3.452800000000012e-08
	1.104758850211569e+01

 345	3.462800000000012e-08
	1.104758850203948e+01

 346	3.472800000000012e-08
	1.104758850197137e+01

 347	3.482800000000012e-08
	1.104758850191161e+01

 348	3.492800000000013e-08
	1.104758850186043e+01

 349	3.502800000000013e-08
	1.104758850181806e+01

 350	3.512800000000013e-08
	1.104758850178468e+01

 351	3.522800000000013e-08
	1.104758850176048e+01

 352	3.532800000000013e-08
	1.104758850174562e+01

 353	3.542800000000013e-08
	1.104758850174017e+01

 354	3.552800000000013e-08
	1.104758850174421e+01

 355	3.562800000000013e-08
	1.104758850175782e+01

 356	3.572800000000013e-08
	1.104758850178103e+01

 357	3.582800000000013e-08
	1.104758850181384e+01

 358	3.592800000000013e-08
	1.104758850185622e+01

 359	3.602800000000014e-08
	1.104758850190812e+01

 360	3.612800000000014e-08
	1.104758850196943e+01

 361	3.622800000000014e-08
	1.104758850204003e+01

 362	3.632800000000014e-08
	1.104758850211981e+01

 363	3.642800000000014e-08
	1.104758850220855e+01

 364	3.652800000000014e-08
	1.104758850230609e+01

 365	3.662800000000014e-08
	1.104758850241217e+01

 366	3.672800000000014e-08
	1.104758850252655e+01

 367	3.682800000000014e-08
	1.104758850264892e+01

 368	3.692800000000014e-08
	1.104758850277898e+01

 369	3.702800000000014e-08
	1.104758850291639e+01

 370	3.712800000000015e-08
	1.104758850306078e+01

 371	3.722800000000015e-08
	1.104758850321177e+01

 372	3.732800000000015e-08
	1.104758850336896e+01

 373	3.742800000000015e-08
	1.104758850353190e+01

 374	3.752800000000015e-08
	1.104758850370011e+01

 375	3.762800000000015e-08
	1.104758850387316e+01

 376	3.772800000000015e-08
	1.104758850405056e+01

 377	3.782800000000015e-08
	1.104758850423175e+01

 378	3.792800000000015e-08
	1.104758850441627e+01

 379	3.802800000000015e-08
	1.104758850460357e+01

 380	3.812800000000015e-08
	1.104758850479310e+01

 381	3.822800000000016e-08
	1.104758850498426e+01

 382	3.832800000000016e-08
	1.104758850517654e+01

 383	3.842800000000016e-08
	1.104758850536933e+01

 384	3.852800000000016e-08
	1.104758850556204e+01

 385	3.862800000000016e-08
	1.104758850575410e+01

 386	3.872800000000016e-08
	1.104758850594493e+01

 387	3.882800000000016e-08
	1.104758850613393e+01

 388	3.892800000000016e-08
	1.104758850632048e+01

 389	3.902800000000016e-08
	1.104758850650404e+01

 390	3.912800000000016e-08
	1.104758850668402e+01

 391	3.922800000000016e-08
	1.104758850685984e+01

 392	3.932800000000017e-08
	1.104758850703093e+01

 393	3.942800000000017e-08
	1.104758850719673e+01

 394	3.952800000000017e-08
	1.104758850735672e+01

 395	3.962800000000017e-08
	1.104758850751035e+01

 396	3.972800000000017e-08
	1.104758850765708e+01

 397	3.982800000000017e-08
	1.104758850779646e+01

 398	3.992800000000017e-08
	1.104758850792801e+01

 399	4.002800000000017e-08
	1.104758850805128e+01

 400	4.012800000000017e-08
	1.104758850816580e+01

 401	4.022800000000017e-08
	1.104758850827118e+01

 402	4.032800000000017e-08
	1.104758850836702e+01

 403	4.042800000000018e-08
	1.104758850845295e+01

 404	4.052800000000018e-08
	1.104758850852868e+01

 405	4.062800000000018e-08
	1.104758850859386e+01

 406	4.072800000000018e-08
	1.104758850864823e+01

 407	4.082800000000018e-08
	1.104758850869158e+01

 408	4.092800000000018e-08
	1.104758850872364e+01

 409	4.102800000000018e-08
	1.104758850874425e+01

 410	4.112800000000018e-08
	1.104758850875327e+01

 411	4.122800000000018e-08
	1.104758850875055e+01

 412	4.132800000000018e-08
	1.104758850873607e+01

 413	4.142800000000018e-08
	1.104758850870975e+01

 414	4.152800000000018e-08
	1.104758850867159e+01

 415	4.162800000000019e-08
	1.104758850862162e+01

 416	4.172800000000019e-08
	1.104758850855992e+01

 417	4.182800000000019e-08
	1.104758850848659e+01

 418	4.192800000000019e-08
	1.104758850840175e+01

 419	4.202800000000019e-08
	1.104758850830557e+01

 420	4.212800000000019e-08
	1.104758850819826e+01

 421	4.222800000000019e-08
	1.104758850808008e+01

 422	4.232800000000019e-08
	1.104758850795131e+01

 423	4.242800000000019e-08
	1.104758850781225e+01

 424	4.252800000000019e-08
	1.104758850766326e+01

 425	4.262800000000019e-08
	1.104758850750472e+01

 426	4.272800000000020e-08
	1.104758850733703e+01

 427	4.282800000000020e-08
	1.104758850716063e+01

 428	4.292800000000020e-08
	1.104758850697599e+01

 429	4.302800000000020e-08
	1.104758850678364e+01

 430	4.312800000000020e-08
	1.104758850658409e+01

 431	4.322800000000020e-08
	1.104758850637787e+01

 432	4.332800000000020e-08
	1.104758850616559e+01

 433	4.342800000000020e-08
	1.104758850594787e+01

 434	4.352800000000020e-08
	1.104758850572530e+01

 435	4.362800000000020e-08
	1.104758850549852e+01

 436	4.372800000000020e-08
	1.104758850526821e+01

 437	4.382800000000021e-08
	1.104758850503501e+01

 438	4.392800000000021e-08
	1.104758850479962e+01

 439	4.402800000000021e-08
	1.104758850456277e+01

 440	4.412800000000021e-08
	1.104758850432512e+01

 441	4.422800000000021e-08
	1.104758850408742e+01

 442	4.432800000000021e-08
	1.104758850385041e+01

 443	4.442800000000021e-08
	1.104758850361480e+01

 444	4.452800000000021e-08
	1.104758850338128e+01

 445	4.462800000000021e-08
	1.104758850315060e+01

 446	4.472800000000021e-08
	1.104758850292349e+01

 447	4.482800000000021e-08
	1.104758850270063e+01

 448	4.492800000000022e-08
	1.104758850248279e+01

 449	4.502800000000022e-08
	1.104758850227065e+01

 450	4.512800000000022e-08
	1.104758850206488e+01

 451	4.522800000000022e-08
	1.104758850186616e+01

 452	4.532800000000022e-08
	1.104758850167515e+01

 453	4.542800000000022e-08
	1.104758850149250e+01

 454	4.552800000000022e-08
	1.104758850131881e+01

 455	4.562800000000022e-08
	1.104758850115466e+01

 456	4.572800000000022e-08
	1.104758850100065e+01

 457	4.582800000000022e-08
	1.104758850085729e+01

 458	4.592800000000022e-08
	1.104758850072512e+01

 459	4.602800000000023e-08
	1.104758850060461e+01

 460	4.612800000000023e-08
	1.104758850049622e+01

 461	4.622800000000023e-08
	1.104758850040035e+01

 462	4.632800000000023e-08
	1.104758850031740e+01

 463	4.642800000000023e-08
	1.104758850024773e+01

 464	4.652800000000023e-08
	1.104758850019164e+01

 465	4.662800000000023e-08
	1.104758850014940e+01

 466	4.672800000000023e-08
	1.104758850012123e+01

 467	4.682800000000023e-08
	1.104758850010731e+01

 468	4.692800000000023e-08
	1.104758850010783e+01

 469	4.702800000000023e-08
	1.104758850012286e+01

 470	4.712800000000024e-08
	1.104758850015244e+01

 471	4.722800000000024e-08
	1.104758850019665e+01

 472	4.732800000000024e-08
	1.104758850025543e+01

 473	4.742800000000024e-08
	1.104758850032868e+01

 474	4.752800000000024e-08
	1.104758850041634e+01

 475	4.762800000000024e-08
	1.104758850051821e+01

 476	4.772800000000024e-08
	1.104758850063409e+01

 477	4.782800000000024e-08
	1.104758850076373e+01

 478	4.792800000000024e-08
	1.104758850090686e+01

 479	4.802800000000024e-08
	1.104758850106314e+01

 480	4.812800000000024e-08
	1.104758850123216e+01

 481	4.822800000000024e-08
	1.104758850141352e+01

 482	4.832800000000025e-08
	1.104758850160675e+01

 483	4.842800000000025e-08
	1.104758850181137e+01

 484	4.852800000000025e-08
	1.104758850202684e+01

 485	4.862800000000025e-08
	1.104758850225256e+01

 486	4.872800000000025e-08
	1.104758850248794e+01

 487	4.882800000000025e-08
	1.104758850273231e+01

 488	4.892800000000025e-08
	1.104758850298499e+01

 489	4.902800000000025e-08
	1.104758850324530e+01

 490	4.912800000000025e-08
	1.104758850351252e+01

 491	4.922800000000025e-08
	1.104758850378586e+01

 492	4.932800000000025e-08
	1.104758850406453e+01

 493	4.942800000000026e-08
	1.104758850434775e+01

 494	4.952800000000026e-08
	1.104758850463467e+01

 495	4.962800000000026e-08
	1.104758850492443e+01

 496	4.972800000000026e-08
	1.104758850521621e+01

 497	4.982800000000026e-08
	1.104758850550911e+01

 498	4.992800000000026e-08
	1.104758850580225e+01

 499	5.002800000000026e-08
	1.104758850609474e+01

 500	5.012800000000026e-08
	1.104758850638571e+01

 501	5.022800000000026e-08
	1.104758850667423e+01

 502	5.032800000000026e-08
	1.104758850695941e+01

 503	5.042800000000026e-08
	1.104758850724036e+01

 504	5.052800000000027e-08
	1.104758850751622e+01

 505	5.062800000000027e-08
	1.104758850778609e+01

 506	5.072800000000027e-08
	1.104758850804912e+01

 507	5.082800000000027e-08
	1.104758850830443e+01

 508	5.092800000000027e-08
	1.104758850855122e+01

 509	5.102800000000027e-08
	1.104758850878867e+01

 510	5.112800000000027e-08
	1.104758850901597e+01

 511	5.122800000000027e-08
	1.104758850923236e+01

 512	5.132800000000027e-08
	1.104758850943711e+01

 513	5.142800000000027e-08
	1.104758850962953e+01

 514	5.152800000000027e-08
	1.104758850980893e+01

 515	5.162800000000028e-08
	1.104758850997465e+01

 516	5.172800000000028e-08
	1.104758851012610e+01

 517	5.182800000000028e-08
	1.104758851026272e+01

 518	5.192800000000028e-08
	1.104758851038399e+01

 519	5.202800000000028e-08
	1.104758851048940e+01

 520	5.212800000000028e-08
	1.104758851057853e+01

 521	5.222800000000028e-08
	1.104758851065099e+01

 522	5.232800000000028e-08
	1.104758851070644e+01

 523	5.242800000000028e-08
	1.104758851074458e+01

 524	5.252800000000028e-08
	1.104758851076516e+01

 525	5.262800000000028e-08
	1.104758851076800e+01

 526	5.272800000000029e-08
	1.104758851075296e+01

 527	5.282800000000029e-08
	1.104758851071997e+01

 528	5.292800000000029e-08
	1.104758851066898e+01

 529	5.302800000000029e-08
	1.104758851060001e+01

 530	5.312800000000029e-08
	1.104758851051314e+01

 531	5.322800000000029e-08
	1.104758851040850e+01

 532	5.332800000000029e-08
	1.104758851028628e+01

 533	5.342800000000029e-08
	1.104758851014673e+01

 534	5.352800000000029e-08
	1.104758850999013e+01

 535	5.362800000000029e-08
	1.104758850981684e+01

 536	5.372800000000029e-08
	1.104758850962729e+01

 537	5.382800000000030e-08
	1.104758850942189e+01

 538	5.392800000000030e-08
	1.104758850920119e+01

 539	5.402800000000030e-08
	1.104758850896574e+01

 540	5.412800000000030e-08
	1.104758850871612e+01

 541	5.422800000000030e-08
	1.104758850845301e+01

 542	5.432800000000030e-08
	1.104758850817709e+01

 543	5.442800000000030e-08
	1.104758850788912e+01

 544	5.452800000000030e-08
	1.104758850758989e+01

 545	5.462800000000030e-08
	1.104758850728023e+01

 546	5.472800000000030e-08
	1.104758850696100e+01

 547	5.482800000000030e-08
	1.104758850663310e+01

 548	5.492800000000030e-08
	1.104758850629745e+01

 549	5.502800000000031e-08
	1.104758850595504e+01

 550	5.512800000000031e-08
	1.104758850560685e+01

 551	5.522800000000031e-08
	1.104758850525389e+01

 552	5.532800000000031e-08
	1.104758850489719e+01

 553	5.542800000000031e-08
	1.104758850453781e+01

 554	5.552800000000031e-08
	1.104758850417684e+01

 555	5.562800000000031e-08
	1.104758850381535e+01

 556	5.572800000000031e-08
	1.104758850345445e+01

 557	5.582800000000031e-08
	1.104758850309523e+01

 558	5.592800000000031e-08
	1.104758850273879e+01

 559	5.602800000000031e-08
	1.104758850238624e+01

 560	5.612800000000032e-08
	1.104758850203869e+01

 561	5.622800000000032e-08
	1.104758850169724e+01

 562	5.632800000000032e-08
	1.104758850136296e+01

 563	5.642800000000032e-08
	1.104758850103693e+01

 564	5.652800000000032e-08
	1.104758850072018e+01

 565	5.662800000000032e-08
	1.104758850041376e+01

 566	5.672800000000032e-08
	1.104758850011867e+01

 567	5.682800000000032e-08
	1.104758849983589e+01

 568	5.692800000000032e-08
	1.104758849956636e+01

 569	5.702800000000032e-08
	1.104758849931102e+01

 570	5.712800000000032e-08
	1.104758849907074e+01

 571	5.722800000000033e-08
	1.104758849884638e+01

 572	5.732800000000033e-08
	1.104758849863871e+01

 573	5.742800000000033e-08
	1.104758849844849e+01

 574	5.752800000000033e-08
	1.104758849827643e+01

 575	5.762800000000033e-08
	1.104758849812317e+01

 576	5.772800000000033e-08
	1.104758849798934e+01

 577	5.782800000000033e-08
	1.104758849787549e+01

 578	5.792800000000033e-08
	1.104758849778212e+01

 579	5.802800000000033e-08
	1.104758849770962e+01

 580	5.812800000000033e-08
	1.104758849765838e+01

 581	5.822800000000033e-08
	1.104758849762876e+01

 582	5.832800000000034e-08
	1.104758849762097e+01

 583	5.842800000000034e-08
	1.104758849763520e+01

 584	5.852800000000034e-08
	1.104758849767156e+01

 585	5.862800000000034e-08
	1.104758849773011e+01

 586	5.872800000000034e-08