Title: *** simple.cir ***
Date: Fri Mar 20 19:54:00  2015
Plotname: Transient Analysis
Flags: real
No. Variables: 2
No. Points: 10000
Variables:
	0	time	time
	1	v(c1)	voltage
Values:
 0	1.280000000000000e-10
	3.570163579283851e+00

 1	2.280000000000000e-10
	3.570163579283848e+00

 2	3.280000000000001e-10
	3.570163579283852e+00

 3	4.280000000000001e-10
	3.570163579283855e+00

 4	5.280000000000000e-10
	3.570163579283859e+00

 5	6.280000000000000e-10
	3.570163579283861e+00

 6	7.280000000000000e-10
	3.570163579283872e+00

 7	8.279999999999999e-10
	3.570163579283877e+00

 8	9.279999999999999e-10
	3.570163579283885e+00

 9	1.028000000000000e-09
	3.570163579283884e+00

 10	1.128000000000000e-09
	3.570163579283890e+00

 11	1.228000000000000e-09
	3.570163579283890e+00

 12	1.328000000000000e-09
	3.570163579283906e+00

 13	1.428000000000000e-09
	3.570163579283905e+00

 14	1.528000000000000e-09
	3.570163579283915e+00

 15	1.628000000000000e-09
	3.570163579283920e+00

 16	1.728000000000000e-09
	3.570163579283921e+00

 17	1.828000000000001e-09
	3.570163579283918e+00

 18	1.928000000000000e-09
	3.570163579283928e+00

 19	2.028000000000000e-09
	3.570163579283940e+00

 20	2.128000000000001e-09
	3.570163579283951e+00

 21	2.228000000000001e-09
	3.570163579283962e+00

 22	2.328000000000001e-09
	3.570163579283973e+00

 23	2.428000000000001e-09
	3.570163579283977e+00

 24	2.528000000000001e-09
	3.570163579283991e+00

 25	2.628000000000001e-09
	3.570163579283996e+00

 26	2.728000000000001e-09
	3.570163579284007e+00

 27	2.828000000000001e-09
	3.570163579284023e+00

 28	2.928000000000001e-09
	3.570163579284039e+00

 29	3.028000000000001e-09
	3.570163579284051e+00

 30	3.128000000000001e-09
	3.570163579284070e+00

 31	3.228000000000001e-09
	3.570163579284087e+00

 32	3.328000000000001e-09
	3.570163579284098e+00

 33	3.428000000000001e-09
	3.570163579284111e+00

 34	3.528000000000001e-09
	3.570163579284116e+00

 35	3.628000000000002e-09
	3.570163579284143e+00

 36	3.728000000000001e-09
	3.570163579284155e+00

 37	3.828000000000001e-09
	3.570163579284169e+00

 38	3.928000000000001e-09
	3.570163579284183e+00

 39	4.028000000000001e-09
	3.570163579284205e+00

 40	4.128000000000001e-09
	3.570163579284215e+00

 41	4.228000000000002e-09
	3.570163579284233e+00

 42	4.328000000000002e-09
	3.570163579284261e+00

 43	4.428000000000002e-09
	3.570163579284281e+00

 44	4.528000000000002e-09
	3.570163579284299e+00

 45	4.628000000000002e-09
	3.570163579284324e+00

 46	4.728000000000002e-09
	3.570163579284338e+00

 47	4.828000000000002e-09
	3.570163579284368e+00

 48	4.928000000000002e-09
	3.570163579284378e+00

 49	5.028000000000002e-09
	3.570163579284403e+00

 50	5.128000000000002e-09
	3.570163579284422e+00

 51	5.228000000000002e-09
	3.570163579284445e+00

 52	5.328000000000002e-09
	3.570163579284473e+00

 53	5.428000000000002e-09
	3.570163579284497e+00

 54	5.528000000000002e-09
	3.570163579284527e+00

 55	5.628000000000002e-09
	3.570163579284555e+00

 56	5.728000000000003e-09
	3.570163579284588e+00

 57	5.828000000000003e-09
	3.570163579284609e+00

 58	5.928000000000003e-09
	3.570163579284636e+00

 59	6.028000000000003e-09
	3.570163579284661e+00

 60	6.128000000000003e-09
	3.570163579284693e+00

 61	6.228000000000003e-09
	3.570163579284726e+00

 62	6.328000000000003e-09
	3.570163579284757e+00

 63	6.428000000000003e-09
	3.570163579284784e+00

 64	6.528000000000003e-09
	3.570163579284812e+00

 65	6.628000000000003e-09
	3.570163579284839e+00

 66	6.728000000000003e-09
	3.570163579284880e+00

 67	6.828000000000003e-09
	3.570163579284916e+00

 68	6.928000000000003e-09
	3.570163579284962e+00

 69	7.028000000000003e-09
	3.570163579284998e+00

 70	7.128000000000004e-09
	3.570163579285042e+00

 71	7.228000000000004e-09
	3.570163579285074e+00

 72	7.328000000000004e-09
	3.570163579285115e+00

 73	7.428000000000004e-09
	3.570163579285161e+00

 74	7.528000000000003e-09
	3.570163579285207e+00

 75	7.628000000000002e-09
	3.570163579285253e+00

 76	7.728000000000001e-09
	3.570163579285308e+00

 77	7.828000000000001e-09
	3.570163579285354e+00

 78	7.928000000000000e-09
	3.570163579285401e+00

 79	8.027999999999999e-09
	3.570163579285451e+00

 80	8.127999999999998e-09
	3.570163579285503e+00

 81	8.227999999999998e-09
	3.570163579285553e+00

 82	8.327999999999997e-09
	3.570163579285608e+00

 83	8.427999999999996e-09
	3.570163579285663e+00

 84	8.527999999999995e-09
	3.570163579285710e+00

 85	8.627999999999995e-09
	3.570163579285766e+00

 86	8.727999999999994e-09
	3.570163579285826e+00

 87	8.827999999999993e-09
	3.570163579285884e+00

 88	8.927999999999992e-09
	3.570163579285941e+00

 89	9.027999999999992e-09
	3.570163579286004e+00

 90	9.127999999999991e-09
	3.570163579286069e+00

 91	9.227999999999990e-09
	3.570163579286141e+00

 92	9.327999999999989e-09
	3.570163579286203e+00

 93	9.427999999999989e-09
	3.570163579286267e+00

 94	9.527999999999988e-09
	3.570163579286347e+00

 95	9.627999999999987e-09
	3.570163579286409e+00

 96	9.727999999999986e-09
	3.570163579286470e+00

 97	9.827999999999986e-09
	3.570163579286537e+00

 98	9.927999999999985e-09
	3.570163579286615e+00

 99	1.002799999999998e-08
	3.570163579286699e+00

 100	1.012799999999998e-08
	3.570163579286772e+00

 101	1.022799999999998e-08
	3.570163579286851e+00

 102	1.032799999999998e-08
	3.570163579286932e+00

 103	1.042799999999998e-08
	3.570163579287009e+00

 104	1.052799999999998e-08
	3.570163579287079e+00

 105	1.062799999999998e-08
	3.570163579287170e+00

 106	1.072799999999998e-08
	3.570163579287254e+00

 107	1.082799999999998e-08
	3.570163579287340e+00

 108	1.092799999999998e-08
	3.570163579287427e+00

 109	1.102799999999998e-08
	3.570163579287521e+00

 110	1.112799999999998e-08
	3.570163579287605e+00

 111	1.122799999999997e-08
	3.570163579287711e+00

 112	1.132799999999997e-08
	3.570163579287800e+00

 113	1.142799999999997e-08
	3.570163579287885e+00

 114	1.152799999999997e-08
	3.570163579287985e+00

 115	1.162799999999997e-08
	3.570163579288062e+00

 116	1.172799999999997e-08
	3.570163579288164e+00

 117	1.182799999999997e-08
	3.570163579288254e+00

 118	1.192799999999997e-08
	3.570163579288348e+00

 119	1.202799999999997e-08
	3.570163579288458e+00

 120	1.212799999999997e-08
	3.570163579288565e+00

 121	1.222799999999997e-08
	3.570163579288669e+00

 122	1.232799999999997e-08
	3.570163579288769e+00

 123	1.242799999999997e-08
	3.570163579288880e+00

 124	1.252799999999997e-08
	3.570163579288996e+00

 125	1.262799999999996e-08
	3.570163579289106e+00

 126	1.272799999999996e-08
	3.570163579289207e+00

 127	1.282799999999996e-08
	3.570163579289318e+00

 128	1.292799999999996e-08
	3.570163579289431e+00

 129	1.302799999999996e-08
	3.570163579289546e+00

 130	1.312799999999996e-08
	3.570163579289675e+00

 131	1.322799999999996e-08
	3.570163579289783e+00

 132	1.332799999999996e-08
	3.570163579289909e+00

 133	1.342799999999996e-08
	3.570163579290016e+00

 134	1.352799999999996e-08
	3.570163579290142e+00

 135	1.362799999999996e-08
	3.570163579290267e+00

 136	1.372799999999996e-08
	3.570163579290387e+00

 137	1.382799999999996e-08
	3.570163579290508e+00

 138	1.392799999999995e-08
	3.570163579290639e+00

 139	1.402799999999995e-08
	3.570163579290762e+00

 140	1.412799999999995e-08
	3.570163579290889e+00

 141	1.422799999999995e-08
	3.570163579291012e+00

 142	1.432799999999995e-08
	3.570163579291141e+00

 143	1.442799999999995e-08
	3.570163579291267e+00

 144	1.452799999999995e-08
	3.570163579291401e+00

 145	1.462799999999995e-08
	3.570163579291520e+00

 146	1.472799999999995e-08
	3.570163579291644e+00

 147	1.482799999999995e-08
	3.570163579291771e+00

 148	1.492799999999995e-08
	3.570163579291896e+00

 149	1.502799999999995e-08
	3.570163579292014e+00

 150	1.512799999999995e-08
	3.570163579292152e+00

 151	1.522799999999995e-08
	3.570163579292274e+00

 152	1.532799999999995e-08
	3.570163579292409e+00

 153	1.542799999999995e-08
	3.570163579292525e+00

 154	1.552799999999995e-08
	3.570163579292653e+00

 155	1.562799999999995e-08
	3.570163579292774e+00

 156	1.572799999999995e-08
	3.570163579292903e+00

 157	1.582799999999995e-08
	3.570163579293027e+00

 158	1.592799999999996e-08
	3.570163579293143e+00

 159	1.602799999999996e-08
	3.570163579293262e+00

 160	1.612799999999996e-08
	3.570163579293385e+00

 161	1.622799999999996e-08
	3.570163579293511e+00

 162	1.632799999999996e-08
	3.570163579293629e+00

 163	1.642799999999996e-08
	3.570163579293744e+00

 164	1.652799999999996e-08
	3.570163579293864e+00

 165	1.662799999999996e-08
	3.570163579293987e+00

 166	1.672799999999996e-08
	3.570163579294092e+00

 167	1.682799999999996e-08
	3.570163579294200e+00

 168	1.692799999999996e-08
	3.570163579294309e+00

 169	1.702799999999997e-08
	3.570163579294412e+00

 170	1.712799999999997e-08
	3.570163579294521e+00

 171	1.722799999999997e-08
	3.570163579294616e+00

 172	1.732799999999997e-08
	3.570163579294713e+00

 173	1.742799999999997e-08
	3.570163579294813e+00

 174	1.752799999999997e-08
	3.570163579294891e+00

 175	1.762799999999997e-08
	3.570163579294982e+00

 176	1.772799999999997e-08
	3.570163579295059e+00

 177	1.782799999999997e-08
	3.570163579295132e+00

 178	1.792799999999997e-08
	3.570163579295191e+00

 179	1.802799999999997e-08
	3.570163579295250e+00

 180	1.812799999999998e-08
	3.570163579295315e+00

 181	1.822799999999998e-08
	3.570163579295371e+00

 182	1.832799999999998e-08
	3.570163579295423e+00

 183	1.842799999999998e-08
	3.570163579295468e+00

 184	1.852799999999998e-08
	3.570163579295496e+00

 185	1.862799999999998e-08
	3.570163579295526e+00

 186	1.872799999999998e-08
	3.570163579295544e+00

 187	1.882799999999998e-08
	3.570163579295544e+00

 188	1.892799999999998e-08
	3.570163579295559e+00

 189	1.902799999999998e-08
	3.570163579295550e+00

 190	1.912799999999998e-08
	3.570163579295539e+00

 191	1.922799999999999e-08
	3.570163579295516e+00

 192	1.932799999999999e-08
	3.570163579295478e+00

 193	1.942799999999999e-08
	3.570163579295445e+00

 194	1.952799999999999e-08
	3.570163579295379e+00

 195	1.962799999999999e-08
	3.570163579295317e+00

 196	1.972799999999999e-08
	3.570163579295249e+00

 197	1.982799999999999e-08
	3.570163579295163e+00

 198	1.992799999999999e-08
	3.570163579295067e+00

 199	2.002799999999999e-08
	3.570163579294952e+00

 200	2.012799999999999e-08
	3.570163579294818e+00

 201	2.022799999999999e-08
	3.570163579294682e+00

 202	2.032800000000000e-08
	3.570163579294526e+00

 203	2.042800000000000e-08
	3.570163579294362e+00

 204	2.052800000000000e-08
	3.570163579294177e+00

 205	2.062800000000000e-08
	3.570163579293990e+00

 206	2.072800000000000e-08
	3.570163579293772e+00

 207	2.082800000000000e-08
	3.570163579293542e+00

 208	2.092800000000000e-08
	3.570163579293293e+00

 209	2.102800000000000e-08
	3.570163579293030e+00

 210	2.112800000000000e-08
	3.570163579292747e+00

 211	2.122800000000000e-08
	3.570163579292442e+00

 212	2.132800000000000e-08
	3.570163579292124e+00

 213	2.142800000000000e-08
	3.570163579291775e+00

 214	2.152800000000001e-08
	3.570163579291405e+00

 215	2.162800000000001e-08
	3.570163579291012e+00

 216	2.172800000000001e-08
	3.570163579290618e+00

 217	2.182800000000001e-08
	3.570163579290175e+00

 218	2.192800000000001e-08
	3.570163579289721e+00

 219	2.202800000000001e-08
	3.570163579289224e+00

 220	2.212800000000001e-08
	3.570163579288718e+00

 221	2.222800000000001e-08
	3.570163579288173e+00

 222	2.232800000000001e-08
	3.570163579287613e+00

 223	2.242800000000001e-08
	3.570163579287020e+00

 224	2.252800000000001e-08
	3.570163579286400e+00

 225	2.262800000000002e-08
	3.570163579285744e+00

 226	2.272800000000002e-08
	3.570163579285055e+00

 227	2.282800000000002e-08
	3.570163579284343e+00

 228	2.292800000000002e-08
	3.570163579283592e+00

 229	2.302800000000002e-08
	3.570163579282810e+00

 230	2.312800000000002e-08
	3.570163579281983e+00

 231	2.322800000000002e-08
	3.570163579281123e+00

 232	2.332800000000002e-08
	3.570163579280224e+00

 233	2.342800000000002e-08
	3.570163579279295e+00

 234	2.352800000000002e-08
	3.570163579278325e+00

 235	2.362800000000002e-08
	3.570163579277308e+00

 236	2.372800000000003e-08
	3.570163579276250e+00

 237	2.382800000000003e-08
	3.570163579275159e+00

 238	2.392800000000003e-08
	3.570163579274011e+00

 239	2.402800000000003e-08
	3.570163579272826e+00

 240	2.412800000000003e-08
	3.570163579271588e+00

 241	2.422800000000003e-08
	3.570163579270319e+00

 242	2.432800000000003e-08
	3.570163579268994e+00

 243	2.442800000000003e-08
	3.570163579267620e+00

 244	2.452800000000003e-08
	3.570163579266194e+00

 245	2.462800000000003e-08
	3.570163579264710e+00

 246	2.472800000000003e-08
	3.570163579263166e+00

 247	2.482800000000004e-08
	3.570163579261578e+00

 248	2.492800000000004e-08
	3.570163579259926e+00

 249	2.502800000000004e-08
	3.570163579258224e+00

 250	2.512800000000004e-08
	3.570163579256461e+00

 251	2.522800000000004e-08
	3.570163579254625e+00

 252	2.532800000000004e-08
	3.570163579252742e+00

 253	2.542800000000004e-08
	3.570163579250797e+00

 254	2.552800000000004e-08
	3.570163579248778e+00

 255	2.562800000000004e-08
	3.570163579246701e+00

 256	2.572800000000004e-08
	3.570163579244546e+00

 257	2.582800000000004e-08
	3.570163579242315e+00

 258	2.592800000000005e-08
	3.570163579240024e+00

 259	2.602800000000005e-08
	3.570163579237652e+00

 260	2.612800000000005e-08
	3.570163579235212e+00

 261	2.622800000000005e-08
	3.570163579232686e+00

 262	2.632800000000005e-08
	3.570163579230099e+00

 263	2.642800000000005e-08
	3.570163579227427e+00

 264	2.652800000000005e-08
	3.570163579224671e+00

 265	2.662800000000005e-08
	3.570163579221827e+00

 266	2.672800000000005e-08
	3.570163579218903e+00

 267	2.682800000000005e-08
	3.570163579215889e+00

 268	2.692800000000005e-08
	3.570163579212791e+00

 269	2.702800000000006e-08
	3.570163579209602e+00

 270	2.712800000000006e-08
	3.570163579206321e+00

 271	2.722800000000006e-08
	3.570163579202937e+00

 272	2.732800000000006e-08
	3.570163579199470e+00

 273	2.742800000000006e-08
	3.570163579195911e+00

 274	2.752800000000006e-08
	3.570163579192238e+00

 275	2.762800000000006e-08
	3.570163579188464e+00

 276	2.772800000000006e-08
	3.570163579184591e+00

 277	2.782800000000006e-08
	3.570163579180617e+00

 278	2.792800000000006e-08
	3.570163579176527e+00

 279	2.802800000000006e-08
	3.570163579172333e+00

 280	2.812800000000006e-08
	3.570163579168028e+00

 281	2.822800000000007e-08
	3.570163579163618e+00

 282	2.832800000000007e-08
	3.570163579159079e+00

 283	2.842800000000007e-08
	3.570163579154437e+00

 284	2.852800000000007e-08
	3.570163579149668e+00

 285	2.862800000000007e-08
	3.570163579144776e+00

 286	2.872800000000007e-08
	3.570163579139767e+00

 287	2.882800000000007e-08
	3.570163579134630e+00

 288	2.892800000000007e-08
	3.570163579129367e+00

 289	2.902800000000007e-08
	3.570163579123967e+00

 290	2.912800000000007e-08
	3.570163579118449e+00

 291	2.922800000000007e-08
	3.570163579112805e+00

 292	2.932800000000008e-08
	3.570163579107004e+00

 293	2.942800000000008e-08
	3.570163579101084e+00

 294	2.952800000000008e-08
	3.570163579095022e+00

 295	2.962800000000008e-08
	3.570163579088821e+00

 296	2.972800000000008e-08
	3.570163579082472e+00

 297	2.982800000000008e-08
	3.570163579075984e+00

 298	2.992800000000008e-08
	3.570163579069363e+00

 299	3.002800000000008e-08
	3.570163579062572e+00

 300	3.012800000000008e-08
	3.570163579055642e+00

 301	3.022800000000008e-08
	3.570163579048571e+00

 302	3.032800000000008e-08
	3.570163579041331e+00

 303	3.042800000000009e-08
	3.570163579033937e+00

 304	3.052800000000009e-08
	3.570163579026383e+00

 305	3.062800000000009e-08
	3.570163579018674e+00

 306	3.072800000000009e-08
	3.570163579010806e+00

 307	3.082800000000009e-08
	3.570163579002781e+00

 308	3.092800000000009e-08
	3.570163578994600e+00

 309	3.102800000000009e-08
	3.570163578986247e+00

 310	3.112800000000009e-08
	3.570163578977726e+00

 311	3.122800000000009e-08
	3.570163578969030e+00

 312	3.132800000000009e-08
	3.570163578960174e+00

 313	3.142800000000009e-08
	3.570163578951145e+00

 314	3.152800000000010e-08
	3.570163578941950e+00

 315	3.162800000000010e-08
	3.570163578932584e+00

 316	3.172800000000010e-08
	3.570163578923029e+00

 317	3.182800000000010e-08
	3.570163578913309e+00

 318	3.192800000000010e-08
	3.570163578903426e+00

 319	3.202800000000010e-08
	3.570163578893356e+00

 320	3.212800000000010e-08
	3.570163578883114e+00

 321	3.222800000000010e-08
	3.570163578872680e+00

 322	3.232800000000010e-08
	3.570163578862079e+00

 323	3.242800000000010e-08
	3.570163578851298e+00

 324	3.252800000000010e-08
	3.570163578840328e+00

 325	3.262800000000011e-08
	3.570163578829197e+00

 326	3.272800000000011e-08
	3.570163578817879e+00

 327	3.282800000000011e-08
	3.570163578806386e+00

 328	3.292800000000011e-08
	3.570163578794707e+00

 329	3.302800000000011e-08
	3.570163578782841e+00

 330	3.312800000000011e-08
	3.570163578770813e+00

 331	3.322800000000011e-08
	3.570163578758582e+00

 332	3.332800000000011e-08
	3.570163578746197e+00

 333	3.342800000000011e-08
	3.570163578733631e+00

 334	3.352800000000011e-08
	3.570163578720893e+00

 335	3.362800000000011e-08
	3.570163578707965e+00

 336	3.372800000000012e-08
	3.570163578694875e+00

 337	3.382800000000012e-08
	3.570163578681626e+00

 338	3.392800000000012e-08
	3.570163578668196e+00

 339	3.402800000000012e-08
	3.570163578654593e+00

 340	3.412800000000012e-08
	3.570163578640835e+00

 341	3.422800000000012e-08
	3.570163578626908e+00

 342	3.432800000000012e-08
	3.570163578612820e+00

 343	3.442800000000012e-08
	3.570163578598578e+00

 344	3.452800000000012e-08
	3.570163578584179e+00

 345	3.462800000000012e-08
	3.570163578569634e+00

 346	3.472800000000012e-08
	3.570163578554953e+00

 347	3.482800000000012e-08
	3.570163578540116e+00

 348	3.492800000000013e-08
	3.570163578525147e+00

 349	3.502800000000013e-08
	3.570163578510040e+00

 350	3.512800000000013e-08
	3.570163578494812e+00

 351	3.522800000000013e-08
	3.570163578479453e+00

 352	3.532800000000013e-08
	3.570163578463973e+00

 353	3.542800000000013e-08
	3.570163578448383e+00

 354	3.552800000000013e-08
	3.570163578432694e+00

 355	3.562800000000013e-08
	3.570163578416904e+00

 356	3.572800000000013e-08
	3.570163578401017e+00

 357	3.582800000000013e-08
	3.570163578385050e+00

 358	3.592800000000013e-08
	3.570163578369002e+00

 359	3.602800000000014e-08
	3.570163578352886e+00

 360	3.612800000000014e-08
	3.570163578336716e+00

 361	3.622800000000014e-08
	3.570163578320487e+00

 362	3.632800000000014e-08
	3.570163578304214e+00

 363	3.642800000000014e-08
	3.570163578287918e+00

 364	3.652800000000014e-08
	3.570163578271585e+00

 365	3.662800000000014e-08
	3.570163578255250e+00

 366	3.672800000000014e-08
	3.570163578238919e+00

 367	3.682800000000014e-08
	3.570163578222602e+00

 368	3.692800000000014e-08
	3.570163578206305e+00

 369	3.702800000000014e-08
	3.570163578190043e+00

 370	3.712800000000015e-08
	3.570163578173824e+00

 371	3.722800000000015e-08
	3.570163578157677e+00

 372	3.732800000000015e-08
	3.570163578141612e+00

 373	3.742800000000015e-08
	3.570163578125635e+00

 374	3.752800000000015e-08
	3.570163578109785e+00

 375	3.762800000000015e-08
	3.570163578094042e+00

 376	3.772800000000015e-08
	3.570163578078455e+00

 377	3.782800000000015e-08
	3.570163578063032e+00

 378	3.792800000000015e-08
	3.570163578047789e+00

 379	3.802800000000015e-08
	3.570163578032736e+00

 380	3.812800000000015e-08
	3.570163578017913e+00

 381	3.822800000000016e-08
	3.570163578003334e+00

 382	3.832800000000016e-08
	3.570163577989010e+00

 383	3.842800000000016e-08
	3.570163577974981e+00

 384	3.852800000000016e-08
	3.570163577961259e+00

 385	3.862800000000016e-08
	3.570163577947879e+00

 386	3.872800000000016e-08
	3.570163577934844e+00

 387	3.882800000000016e-08
	3.570163577922199e+00

 388	3.892800000000016e-08
	3.570163577909955e+00

 389	3.902800000000016e-08
	3.570163577898165e+00

 390	3.912800000000016e-08
	3.570163577886837e+00

 391	3.922800000000016e-08
	3.570163577876010e+00

 392	3.932800000000017e-08
	3.570163577865709e+00

 393	3.942800000000017e-08
	3.570163577855972e+00

 394	3.952800000000017e-08
	3.570163577846813e+00

 395	3.962800000000017e-08
	3.570163577838294e+00

 396	3.972800000000017e-08
	3.570163577830428e+00

 397	3.982800000000017e-08
	3.570163577823263e+00

 398	3.992800000000017e-08
	3.570163577816821e+00

 399	4.002800000000017e-08
	3.570163577811166e+00

 400	4.012800000000017e-08
	3.570163577806318e+00

 401	4.022800000000017e-08
	3.570163577802313e+00

 402	4.032800000000017e-08
	3.570163577799208e+00

 403	4.042800000000018e-08
	3.570163577797047e+00

 404	4.052800000000018e-08
	3.570163577795869e+00

 405	4.062800000000018e-08
	3.570163577795707e+00

 406	4.072800000000018e-08
	3.570163577796637e+00

 407	4.082800000000018e-08
	3.570163577798678e+00

 408	4.092800000000018e-08
	3.570163577801899e+00

 409	4.102800000000018e-08
	3.570163577806333e+00

 410	4.112800000000018e-08
	3.570163577812051e+00

 411	4.122800000000018e-08
	3.570163577819101e+00

 412	4.132800000000018e-08
	3.570163577827549e+00

 413	4.142800000000018e-08
	3.570163577837433e+00

 414	4.152800000000018e-08
	3.570163577848817e+00

 415	4.162800000000019e-08
	3.570163577861771e+00

 416	4.172800000000019e-08
	3.570163577876353e+00

 417	4.182800000000019e-08
	3.570163577892624e+00

 418	4.192800000000019e-08
	3.570163577910649e+00

 419	4.202800000000019e-08
	3.570163577930512e+00

 420	4.212800000000019e-08
	3.570163577952252e+00

 421	4.222800000000019e-08
	3.570163577975960e+00

 422	4.232800000000019e-08
	3.570163578001702e+00

 423	4.242800000000019e-08
	3.570163578029551e+00

 424	4.252800000000019e-08
	3.570163578059597e+00

 425	4.262800000000019e-08
	3.570163578091898e+00

 426	4.272800000000020e-08
	3.570163578126539e+00

 427	4.282800000000020e-08
	3.570163578163631e+00

 428	4.292800000000020e-08
	3.570163578203212e+00

 429	4.302800000000020e-08
	3.570163578245407e+00

 430	4.312800000000020e-08
	3.570163578290279e+00

 431	4.322800000000020e-08
	3.570163578337944e+00

 432	4.332800000000020e-08
	3.570163578388459e+00

 433	4.342800000000020e-08
	3.570163578441954e+00

 434	4.352800000000020e-08
	3.570163578498511e+00

 435	4.362800000000020e-08
	3.570163578558219e+00

 436	4.372800000000020e-08
	3.570163578621181e+00

 437	4.382800000000021e-08
	3.570163578687525e+00

 438	4.392800000000021e-08
	3.570163578757327e+00

 439	4.402800000000021e-08
	3.570163578830709e+00

 440	4.412800000000021e-08
	3.570163578907788e+00

 441	4.422800000000021e-08
	3.570163578988658e+00

 442	4.432800000000021e-08
	3.570163579073450e+00

 443	4.442800000000021e-08
	3.570163579162276e+00

 444	4.452800000000021e-08
	3.570163579255259e+00

 445	4.462800000000021e-08
	3.570163579352511e+00

 446	4.472800000000021e-08
	3.570163579454178e+00

 447	4.482800000000021e-08
	3.570163579560372e+00

 448	4.492800000000022e-08
	3.570163579671219e+00

 449	4.502800000000022e-08
	3.570163579786862e+00

 450	4.512800000000022e-08
	3.570163579907431e+00

 451	4.522800000000022e-08
	3.570163580033063e+00

 452	4.532800000000022e-08
	3.570163580163903e+00

 453	4.542800000000022e-08
	3.570163580300101e+00

 454	4.552800000000022e-08
	3.570163580441785e+00

 455	4.562800000000022e-08
	3.570163580589115e+00

 456	4.572800000000022e-08
	3.570163580742245e+00

 457	4.582800000000022e-08
	3.570163580901320e+00

 458	4.592800000000022e-08
	3.570163581066504e+00

 459	4.602800000000023e-08
	3.570163581237952e+00

 460	4.612800000000023e-08
	3.570163581415840e+00

 461	4.622800000000023e-08
	3.570163581600312e+00

 462	4.632800000000023e-08
	3.570163581791546e+00

 463	4.642800000000023e-08
	3.570163581989688e+00

 464	4.652800000000023e-08
	3.570163582194942e+00

 465	4.662800000000023e-08
	3.570163582407485e+00

 466	4.672800000000023e-08
	3.570163582627498e+00

 467	4.682800000000023e-08
	3.570163582855130e+00

 468	4.692800000000023e-08
	3.570163583090592e+00

 469	4.702800000000023e-08
	3.570163583334074e+00

 470	4.712800000000024e-08
	3.570163583585757e+00

 471	4.722800000000024e-08
	3.570163583845813e+00

 472	4.732800000000024e-08
	3.570163584114480e+00

 473	4.742800000000024e-08
	3.570163584391921e+00

 474	4.752800000000024e-08
	3.570163584678346e+00

 475	4.762800000000024e-08
	3.570163584973968e+00

 476	4.772800000000024e-08
	3.570163585278985e+00

 477	4.782800000000024e-08
	3.570163585593604e+00

 478	4.792800000000024e-08
	3.570163585918042e+00

 479	4.802800000000024e-08
	3.570163586252492e+00

 480	4.812800000000024e-08
	3.570163586597197e+00

 481	4.822800000000024e-08
	3.570163586952364e+00

 482	4.832800000000025e-08
	3.570163587318200e+00

 483	4.842800000000025e-08
	3.570163587694964e+00

 484	4.852800000000025e-08
	3.570163588082852e+00

 485	4.862800000000025e-08
	3.570163588482084e+00

 486	4.872800000000025e-08
	3.570163588892926e+00

 487	4.882800000000025e-08
	3.570163589315572e+00

 488	4.892800000000025e-08
	3.570163589750271e+00

 489	4.902800000000025e-08
	3.570163590197272e+00

 490	4.912800000000025e-08
	3.570163590656791e+00

 491	4.922800000000025e-08
	3.570163591129067e+00

 492	4.932800000000025e-08
	3.570163591614350e+00

 493	4.942800000000026e-08
	3.570163592112896e+00

 494	4.952800000000026e-08
	3.570163592624931e+00

 495	4.962800000000026e-08
	3.570163593150694e+00

 496	4.972800000000026e-08
	3.570163593690461e+00

 497	4.982800000000026e-08
	3.570163594244459e+00

 498	4.992800000000026e-08
	3.570163594812928e+00

 499	5.002800000000026e-08
	3.570163595396130e+00

 500	5.012800000000026e-08
	3.570163595994317e+00

 501	5.022800000000026e-08
	3.570163596607742e+00

 502	5.032800000000026e-08
	3.570163597236645e+00

 503	5.042800000000026e-08
	3.570163597881274e+00

 504	5.052800000000027e-08
	3.570163598541901e+00

 505	5.062800000000027e-08
	3.570163599218774e+00

 506	5.072800000000027e-08
	3.570163599912130e+00

 507	5.082800000000027e-08
	3.570163600622215e+00

 508	5.092800000000027e-08
	3.570163601349297e+00

 509	5.102800000000027e-08
	3.570163602093628e+00

 510	5.112800000000027e-08
	3.570163602855441e+00

 511	5.122800000000027e-08
	3.570163603634983e+00

 512	5.132800000000027e-08
	3.570163604432507e+00

 513	5.142800000000027e-08
	3.570163605248244e+00

 514	5.152800000000027e-08
	3.570163606082462e+00

 515	5.162800000000028e-08
	3.570163606935371e+00

 516	5.172800000000028e-08
	3.570163607807211e+00

 517	5.182800000000028e-08
	3.570163608698232e+00

 518	5.192800000000028e-08
	3.570163609608648e+00

 519	5.202800000000028e-08
	3.570163610538704e+00

 520	5.212800000000028e-08
	3.570163611488593e+00

 521	5.222800000000028e-08
	3.570163612458557e+00

 522	5.232800000000028e-08
	3.570163613448805e+00

 523	5.242800000000028e-08
	3.570163614459537e+00

 524	5.252800000000028e-08
	3.570163615490964e+00

 525	5.262800000000028e-08
	3.570163616543262e+00

 526	5.272800000000029e-08
	3.570163617616646e+00

 527	5.282800000000029e-08
	3.570163618711313e+00

 528	5.292800000000029e-08
	3.570163619827415e+00

 529	5.302800000000029e-08
	3.570163620965117e+00

 530	5.312800000000029e-08
	3.570163622124600e+00

 531	5.322800000000029e-08
	3.570163623306001e+00

 532	5.332800000000029e-08
	3.570163624509482e+00

 533	5.342800000000029e-08
	3.570163625735159e+00

 534	5.352800000000029e-08
	3.570163626983178e+00

 535	5.362800000000029e-08
	3.570163628253642e+00

 536	5.372800000000029e-08
	3.570163629546657e+00

 537	5.382800000000030e-08
	3.570163630862314e+00

 538	5.392800000000030e-08
	3.570163632200701e+00

 539	5.402800000000030e-08
	3.570163633561874e+00

 540	5.412800000000030e-08
	3.570163634945888e+00

 541	5.422800000000030e-08
	3.570163636352786e+00

 542	5.432800000000030e-08
	3.570163637782594e+00

 543	5.442800000000030e-08
	3.570163639235320e+00

 544	5.452800000000030e-08
	3.570163640710948e+00

 545	5.462800000000030e-08
	3.570163642209473e+00

 546	5.472800000000030e-08
	3.570163643730830e+00

 547	5.482800000000030e-08
	3.570163645274970e+00

 548	5.492800000000030e-08
	3.570163646841824e+00

 549	5.502800000000031e-08
	3.570163648431273e+00

 550	5.512800000000031e-08
	3.570163650043198e+00

 551	5.522800000000031e-08
	3.570163651677468e+00

 552	5.532800000000031e-08
	3.570163653333906e+00

 553	5.542800000000031e-08
	3.570163655012336e+00

 554	5.552800000000031e-08
	3.570163656712533e+00

 555	5.562800000000031e-08
	3.570163658434256e+00

 556	5.572800000000031e-08
	3.570163660177243e+00

 557	5.582800000000031e-08
	3.570163661941194e+00

 558	5.592800000000031e-08
	3.570163663725793e+00

 559	5.602800000000031e-08
	3.570163665530691e+00

 560	5.612800000000032e-08
	3.570163667355503e+00

 561	5.622800000000032e-08
	3.570163669199804e+00

 562	5.632800000000032e-08
	3.570163671063150e+00

 563	5.642800000000032e-08
	3.570163672945069e+00

 564	5.652800000000032e-08
	3.570163674845017e+00

 565	5.662800000000032e-08
	3.570163676762452e+00

 566	5.672800000000032e-08
	3.570163678696808e+00

 567	5.682800000000032e-08
	3.570163680647410e+00

 568	5.692800000000032e-08
	3.570163682613600e+00

 569	5.702800000000032e-08
	3.570163684594673e+00

 570	5.712800000000032e-08
	3.570163686589854e+00

 571	5.722800000000033e-08
	3.570163688598343e+00

 572	5.732800000000033e-08
	3.570163690619280e+00

 573	5.742800000000033e-08
	3.570163692651791e+00

 574	5.752800000000033e-08
	3.570163694694906e+00

 575	5.762800000000033e-08
	3.570163696747638e+00

 576	5.772800000000033e-08
	3.570163698808927e+00

 577	5.782800000000033e-08
	3.570163700877659e+00

 578	5.792800000000033e-08
	3.570163702952677e+00

 579	5.802800000000033e-08
	3.570163705032766e+00

 580	5.812800000000033e-08
	3.570163707116639e+00

 581	5.822800000000033e-08
	3.570163709202951e+00

 582	5.832800000000034e-08
	3.570163711290306e+00

 583	5.842800000000034e-08
	3.570163713377215e+00

 584	5.852800000000034e-08
	3.570163715462168e+00

 585	5.862800000000034e-08
	3.570163717543545e+00

 586	5.872800000000034e-08