Title: *** simple.cir ***
Date: Thu Mar  5 15:02:52  2015
Plotname: Transient Analysis
Flags: real
No. Variables: 4
No. Points: 1030
Variables:
	0	time	time
	1	v(c1)	voltage
	2	v(c2)	voltage
	3	v(e1)-v(e2)	notype
Values:
 0	1.000084471966635e-04
	-1.339322798226883e+00
	-3.892195473039497e+00
	6.772725749934407e-01

 1	1.000184471966635e-04
	-1.338877739256603e+00
	-3.889313360501955e+00
	6.702573217077350e-01

 2	1.000284471966635e-04
	-1.337688776311517e+00
	-3.888098765453246e+00
	6.632627639238939e-01

 3	1.000384471966635e-04
	-1.337219296575075e+00
	-3.885263111061212e+00
	6.562887112326035e-01

 4	1.000484471966635e-04
	-1.336062924227276e+00
	-3.884026147493761e+00
	6.493352270784403e-01

 5	1.000584471966635e-04
	-1.335572418210348e+00
	-3.881234177701006e+00
	6.424021341822344e-01

 6	1.000684471966635e-04
	-1.334445418927009e+00
	-3.879977311360951e+00
	6.354894843566457e-01

 7	1.000784471966635e-04
	-1.333936843238457e+00
	-3.877226485637164e+00
	6.285971119872298e-01

 8	1.000884471966635e-04
	-1.332836406355938e+00
	-3.875951966927470e+00
	6.217250586171410e-01

 9	1.000984471966635e-04
	-1.332312338606908e+00
	-3.873239955543426e+00
	6.148731690146114e-01

 10	1.001084471966634e-04
	-1.331236005767816e+00
	-3.871949839800425e+00
	6.080414756454657e-01

 11	1.001184471966634e-04
	-1.330698695331008e+00
	-3.869274504028791e+00
	6.012298325375758e-01

 12	1.001284471966634e-04
	-1.329644313439831e+00
	-3.867970669610565e+00
	5.944382641239683e-01

 13	1.001384471966634e-04
	-1.329095725221566e+00
	-3.865330044056863e+00
	5.876666327070761e-01

 14	1.001484471966634e-04
	-1.328061405872293e+00
	-3.864014208507543e+00
	5.809149556035162e-01

 15	1.001584471966634e-04
	-1.327503258069498e+00
	-3.861406485315654e+00
	5.741831025250139e-01

 16	1.001684471966634e-04
	-1.326487342544246e+00
	-3.860080219835050e+00
	5.674710844768511e-01

 17	1.001784471966634e-04
	-1.325921139223363e+00
	-3.857503734545015e+00
	5.607787778188729e-01

 18	1.001884471966634e-04
	-1.324922168285359e+00
	-3.856168476960278e+00
	5.541061879533453e-01

 19	1.001984471966634e-04
	-1.324349227504346e+00
	-3.853621695826117e+00
	5.474531972176124e-01

 20	1.002084471966634e-04
	-1.323365915320052e+00
	-3.852278762245239e+00
	5.408198060350462e-01

 21	1.002184471966634e-04
	-1.322787393411899e+00
	-3.849760270839607e+00
	5.342059021286927e-01

 22	1.002284471966634e-04
	-1.321818605027403e+00
	-3.848410866137250e+00
	5.276114814938322e-01

 23	1.002384471966634e-04
	-1.321235517578979e+00
	-3.845919359095390e+00
	5.210364367161118e-01

 24	1.002484471966634e-04
	-1.320280249457600e+00
	-3.844564586366999e+00
	5.144807598495831e-01

 25	1.002584471966634e-04
	-1.319693489441974e+00
	-3.842098858138020e+00
	5.079443478793215e-01

 26	1.002684471966634e-04
	-1.318750852638387e+00
	-3.840739727239626e+00
	5.014271893492150e-01

 27	1.002784471966634e-04
	-1.318161206095328e+00
	-3.838298663730836e+00
	4.949291852329400e-01

 28	1.002884471966634e-04
	-1.317230411700764e+00
	-3.836936099007539e+00
	4.884503209465172e-01

 29	1.002984471966633e-04
	-1.316638571304899e+00
	-3.834518670021248e+00
	4.819905010871799e-01

 30	1.003084471966633e-04
	-1.315718917849185e+00
	-3.833153517314914e+00
	4.755497082826956e-01

 31	1.003184471966633e-04
	-1.315125494658117e+00
	-3.830758769690150e+00
	4.691278504288996e-01

 32	1.003284471966633e-04
	-1.314216357198141e+00
	-3.829391802705697e+00
	4.627249076675284e-01

 33	1.003384471966633e-04
	-1.313621890831267e+00
	-3.827018854086084e+00
	4.563407909032291e-01

 34	1.003484471966633e-04
	-1.312722711493111e+00
	-3.825650780185617e+00
	4.499754780610989e-01

 35	1.003584471966633e-04
	-1.312127678958203e+00
	-3.823298813347564e+00
	4.436288827956942e-01

 36	1.003684471966633e-04
	-1.311237958732618e+00
	-3.821930278833250e+00
	4.373009810560227e-01

 37	1.003784471966633e-04
	-1.310642782085683e+00
	-3.819598536513435e+00
	4.309916890148151e-01

 38	1.003884471966633e-04
	-1.309762073704750e+00
	-3.818230131452994e+00
	4.247009808601354e-01

 39	1.003984471966633e-04
	-1.309167126703546e+00
	-3.815917911623361e+00
	4.184287750751055e-01

 40	1.004084471966633e-04
	-1.308295028450515e+00
	-3.814550174265999e+00
	4.121750442795840e-01

 41	1.004184471966633e-04
	-1.307700642339528e+00
	-3.812256825810235e+00
	4.059397090804451e-01

 42	1.004284471966633e-04
	-1.306836792663014e+00
	-3.810890246631448e+00
	3.997227407022894e-01

 43	1.004384471966633e-04
	-1.306243261209162e+00
	-3.808615165383834e+00
	3.935240617078004e-01

 44	1.004484471966633e-04
	-1.305387334033319e+00
	-3.807250190799418e+00
	3.873436420817495e-01

 45	1.004584471966633e-04
	-1.304794917913212e+00
	-3.804992815907132e+00
	3.811814061912564e-01

 46	1.004684471966633e-04
	-1.303946618548455e+00
	-3.803629851686359e+00
	3.750373229211497e-01

 47	1.004784471966633e-04
	-1.303355549176457e+00
	-3.801389662267099e+00
	3.689113183063304e-01

 48	1.004884471966632e-04
	-1.302514610749615e+00
	-3.800029076674251e+00
	3.628033602577569e-01

 49	1.004984471966632e-04
	-1.301925093621672e+00
	-3.797805588739398e+00
	3.567133763545414e-01

 50	1.005084471966632e-04
	-1.301091273954900e+00
	-3.796447715427525e+00
	3.506413336475607e-01

 51	1.005184471966632e-04
	-1.300503491574016e+00
	-3.794240479047765e+00
	3.445871611482363e-01

 52	1.005284471966632e-04
	-1.299676570452940e+00
	-3.792885619729184e+00
	3.385508251501723e-01

 53	1.005384471966632e-04
	-1.299090684891115e+00
	-3.790694216417552e+00
	3.325322559956230e-01

 54	1.005484471966632e-04
	-1.298270461669927e+00
	-3.789342643330071e+00
	3.265314193139313e-01

 55	1.005584471966632e-04
	-1.297686616816849e+00
	-3.787166683627642e+00
	3.205482466860308e-01

 56	1.005684471966632e-04
	-1.296872908314816e+00
	-3.785818641812524e+00
	3.145827031612272e-01

 57	1.005784471966632e-04
	-1.296291231853267e+00
	-3.783657763055053e+00
	3.086347214753520e-01

 58	1.005884471966632e-04
	-1.295483870505107e+00
	-3.782313472465139e+00
	3.027042661740151e-01

 59	1.005984471966632e-04
	-1.294904475650266e+00
	-3.780167336718367e+00
	2.967912710716791e-01

 60	1.006084471966632e-04
	-1.294103307876423e+00
	-3.778826994168781e+00
	2.908957002795107e-01

 61	1.006184471966632e-04
	-1.293526294909271e+00
	-3.776695286316564e+00
	2.850174886211070e-01

 62	1.006284471966632e-04
	-1.292731179677382e+00
	-3.775359067290682e+00
	2.791565998360594e-01

 63	1.006384471966632e-04
	-1.292156637299269e+00
	-3.773241493264299e+00
	2.733129696937104e-01

 64	1.006484471966632e-04
	-1.291367444852568e+00
	-3.771909553587651e+00
	2.674865616191755e-01

 65	1.006584471966632e-04
	-1.290795451383965e+00
	-3.769805838725102e+00
	2.616773122696743e-01

 66	1.006684471966632e-04
	-1.290012062114787e+00
	-3.768478316116330e+00
	2.558851848077328e-01

 67	1.006784471966632e-04
	-1.289442686558134e+00
	-3.766388203641476e+00
	2.501101167255730e-01

 68	1.006884471966631e-04
	-1.288664990007887e+00
	-3.765065219149186e+00
	2.443520709703018e-01

 69	1.006984471966631e-04
	-1.288098292991847e+00
	-3.762988468761838e+00
	2.386109858208023e-01

 70	1.007084471966631e-04
	-1.287326186962166e+00
	-3.761670128097528e+00
	2.328868240516431e-01

 71	1.007184471966631e-04
	-1.286762221581715e+00
	-3.759606514665130e+00
	2.271795246841464e-01

 72	1.007284471966631e-04
	-1.285995611342631e+00
	-3.758292909438860e+00
	2.214890503593323e-01

 73	1.007384471966631e-04
	-1.285434423908413e+00
	-3.756242221783684e+00
	2.158153408004817e-01

 74	1.007484471966631e-04
	-1.284673221491268e+00
	-3.754933430648587e+00
	2.101583585505176e-01

 75	1.007584471966631e-04
	-1.284114852199182e+00
	-3.752895470423121e+00
	2.045180439976146e-01

 76	1.007684471966631e-04
	-1.283358975764457e+00
	-3.751591560136576e+00
	1.988943596188228e-01

 77	1.007784471966631e-04
	-1.282803459294790e+00
	-3.749566140779862e+00
	1.932872464332540e-01

 78	1.007884471966631e-04
	-1.282052832566005e+00
	-3.748267167187361e+00
	1.876966668813664e-01

 79	1.007984471966631e-04
	-1.281500198621021e+00
	-3.746254112958112e+00
	1.821225625820957e-01

 80	1.008084471966631e-04
	-1.280754750375974e+00
	-3.744960121902873e+00
	1.765648959659067e-01

 81	1.008184471966631e-04
	-1.280205024162306e+00
	-3.742959266981463e+00
	1.710236092230462e-01

 82	1.008284471966631e-04
	-1.279464687776527e+00
	-3.741670295148792e+00
	1.654986647981240e-01

 83	1.008384471966631e-04
	-1.278917890440355e+00
	-3.739681482807743e+00
	1.599900054265575e-01

 84	1.008484471966631e-04
	-1.278182603474993e+00
	-3.738397558504015e+00
	1.544975935890034e-01

 85	1.008584471966631e-04
	-1.277638752493178e+00
	-3.736420640336251e+00
	1.490213725420904e-01

 86	1.008684471966631e-04
	-1.276908456323896e+00
	-3.735141784210986e+00
	1.435613048223616e-01

 87	1.008784471966630e-04
	-1.276367565858285e+00
	-3.733176619418069e+00
	1.381173341856927e-01

 88	1.008884471966630e-04
	-1.275642205339648e+00
	-3.731902845130433e+00
	1.326894232424771e-01

 89	1.008984471966630e-04
	-1.275104286556564e+00
	-3.729949299861239e+00
	1.272775162276982e-01

 90	1.009084471966630e-04
	-1.274383809718538e+00
	-3.728680614695828e+00
	1.218815758418379e-01

 91	1.009184471966630e-04
	-1.273848871079050e+00
	-3.726738561437023e+00
	1.165015467805315e-01

 92	1.009284471966630e-04
	-1.273133228851500e+00
	-3.725474966870811e+00
	1.111373918490113e-01

 93	1.009384471966630e-04
	-1.272601276373900e+00
	-3.723544283881116e+00
	1.057890561866475e-01

 94	1.009484471966630e-04
	-1.271890422337707e+00
	-3.722285776108624e+00
	1.004565027166349e-01

 95	1.009584471966630e-04
	-1.271361459836271e+00
	-3.720366346897197e+00
	9.513967700657222e-02

 96	1.009684471966630e-04
	-1.270655349996179e+00
	-3.719112917311172e+00
	8.983854210950826e-02

 97	1.009784471966630e-04
	-1.270129379298395e+00
	-3.717204630156139e+00
	8.455304400706476e-02

 98	1.009884471966630e-04
	-1.269427971877184e+00
	-3.715956265791505e+00
	7.928314589281538e-02

 99	1.009984471966630e-04
	-1.268904993020842e+00
	-3.714059013294046e+00
	7.402879414939267e-02

 100	1.010084471966630e-04
	-1.268208248271909e+00
	-3.712815697235343e+00
	6.878995212045647e-02

 101	1.010184471966630e-04
	-1.267688259685443e+00
	-3.710929375910485e+00
	6.356656657772586e-02

 102	1.010284471966630e-04
	-1.266996139722102e+00
	-3.709691087665631e+00
	5.835860102348756e-02

 103	1.010384471966630e-04
	-1.266479138388342e+00
	-3.707815597563330e+00
	5.316600260763504e-02

 104	1.010484471966630e-04
	-1.265791607028273e+00
	-3.706582313406021e+00
	4.798873499869005e-02

 105	1.010584471966630e-04
	-1.265277588634159e+00
	-3.704717557762943e+00
	4.282674571472400e-02

 106	1.010684471966629e-04
	-1.264594611257759e+00
	-3.703489251046322e+00
	3.767999859724647e-02

 107	1.010784471966629e-04
	-1.264083570330926e+00
	-3.701635135965097e+00
	3.254844152336034e-02

 108	1.010884471966629e-04
	-1.263405113751935e+00
	-3.700411777407731e+00
	2.743203851353648e-02

 109	1.010984471966629e-04
	-1.262897043785773e+00
	-3.698568211562682e+00
	2.233073779553418e-02

 110	1.011084471966629e-04
	-1.262223076133385e+00
	-3.697349769509693e+00
	1.724450357404406e-02

 111	1.011184471966629e-04
	-1.261717969700771e+00
	-3.695516663874889e+00
	1.217328441982390e-02

 112	1.011284471966629e-04
	-1.261048460312266e+00
	-3.694303104536009e+00
	7.117044726389743e-03

 113	1.011384471966629e-04
	-1.260546309169919e+00
	-3.692480372136546e+00
	2.075733400490165e-03

 114	1.011484471966629e-04
	-1.259881228492315e+00
	-3.691271659801310e+00
	-2.950684971520623e-03

 115	1.011584471966629e-04
	-1.259382023676350e+00
	-3.689459215485213e+00
	-7.962261153316774e-03

 116	1.011684471966629e-04
	-1.258721343177104e+00
	-3.688255312719048e+00
	-1.295903036223445e-02

 117	1.011784471966629e-04
	-1.258225075089891e+00
	-3.686453072946684e+00
	-1.794104303823207e-02

 118	1.011884471966629e-04
	-1.257568767175382e+00
	-3.685253940767903e+00
	-2.290833419935989e-02

 119	1.011984471966629e-04
	-1.257075425665589e+00
	-3.683461823420386e+00
	-2.786095396722521e-02

 120	1.012084471966629e-04
	-1.256423463606716e+00
	-3.682267421459471e+00
	-3.279893715806059e-02

 121	1.012184471966629e-04
	-1.255933038041886e+00
	-3.680485345661393e+00
	-3.772233358002808e-02

 122	1.012284471966629e-04
	-1.255285395906319e+00
	-3.679295632304256e+00
	-4.263117784542070e-02

 123	1.012384471966629e-04
	-1.254797875240112e+00
	-3.677523518263374e+00
	-4.752551945344363e-02

 124	1.012484471966629e-04
	-1.254154527830835e+00
	-3.676338450780245e+00
	-5.240539281069445e-02

 125	1.012584471966629e-04
	-1.253669900663819e+00
	-3.674576219638828e+00
	-5.727084711152708e-02

 126	1.012684471966628e-04
	-1.253030823462959e+00
	-3.673395754298570e+00
	-6.212191655542210e-02

 127	1.012784471966628e-04
	-1.252549078098293e+00
	-3.671643327997296e+00
	-6.695865003563739e-02

 128	1.012884471966628e-04
	-1.251914247216356e+00
	-3.670467420169625e+00
	-7.178108154341611e-02

 129	1.012984471966628e-04
	-1.251435371711101e+00
	-3.668724721323995e+00
	-7.658925967436137e-02

 130	1.013084471966628e-04
	-1.250804763840913e+00
	-3.667553325569871e+00
	-8.138321821062711e-02

 131	1.013184471966628e-04
	-1.250328746052578e+00
	-3.665820277355859e+00
	-8.616300545331024e-02

 132	1.013284471966628e-04
	-1.249702338427080e+00
	-3.664653347505754e+00
	-9.092865497487024e-02

 133	1.013384471966628e-04
	-1.249229166056521e+00
	-3.662929873555756e+00
	-9.568021478478261e-02

 134	1.013484471966628e-04
	-1.248606936411511e+00
	-3.661767362780330e+00
	-1.004177182454220e-01

 135	1.013584471966628e-04
	-1.248136597041784e+00
	-3.660053387086724e+00
	-1.051412130772889e-01

 136	1.013684471966628e-04
	-1.247518523581449e+00
	-3.658895247955871e+00
	-1.098507324324793e-01

 137	1.013784471966628e-04
	-1.247051004713512e+00
	-3.657190694782819e+00
	-1.145463237449453e-01

 138	1.013884471966628e-04
	-1.246437066079909e+00
	-3.656036879317587e+00
	-1.192280199564841e-01

 139	1.013984471966628e-04
	-1.245972355165452e+00
	-3.654341673120292e+00
	-1.238958682167248e-01

 140	1.014084471966628e-04
	-1.245362530410620e+00
	-3.653192132835703e+00
	-1.285499012572986e-01

 141	1.014184471966628e-04
	-1.244900614881797e+00
	-3.651506198185080e+00
	-1.331901659455594e-01

 142	1.014284471966628e-04
	-1.244294883443312e+00
	-3.650360884127084e+00
	-1.378166948032424e-01

 143	1.014384471966628e-04
	-1.243835750740315e+00
	-3.648684145641111e+00
	-1.424295344173077e-01

 144	1.014484471966628e-04
	-1.243234092419017e+00
	-3.647543008415604e+00
	-1.470287170999800e-01

 145	1.014584471966627e-04
	-1.242777730014874e+00
	-3.645875390694451e+00
	-1.516142891595620e-01

 146	1.014684471966627e-04
	-1.242180124955417e+00
	-3.644738380491011e+00
	-1.561862826992626e-01

 147	1.014784471966627e-04
	-1.241726520378932e+00
	-3.643079808057240e+00
	-1.607447437503202e-01

 148	1.014884471966627e-04
	-1.241132949052403e+00
	-3.641946874666608e+00
	-1.652897042075105e-01

 149	1.014984471966627e-04
	-1.240682089909372e+00
	-3.640297271909800e+00
	-1.698212098264813e-01

 150	1.015084471966627e-04
	-1.240092533097881e+00
	-3.639168364735817e+00
	-1.743392922942357e-01

 151	1.015184471966627e-04
	-1.239644407090178e+00
	-3.637527655859460e+00
	-1.788439970921947e-01

 152	1.015284471966627e-04
	-1.239058845873682e+00
	-3.636402723926828e+00
	-1.833353557003159e-01

 153	1.015384471966627e-04
	-1.238613440817268e+00
	-3.634770832899480e+00
	-1.878134133270493e-01

 154	1.015484471966627e-04
	-1.238031856561792e+00
	-3.633649824855974e+00
	-1.922782012460895e-01

 155	1.015584471966627e-04
	-1.237589160402843e+00
	-3.632026675363564e+00
	-1.967297643940804e-01

 156	1.015684471966627e-04
	-1.237011534750808e+00
	-3.630909539479190e+00
	-2.011681338392841e-01

 157	1.015784471966627e-04
	-1.236571535580971e+00
	-3.629295054880569e+00
	-2.055933542476200e-01

 158	1.015884471966627e-04
	-1.235997850442552e+00
	-3.628181739041382e+00
	-2.100054564827802e-01

 159	1.015984471966627e-04
	-1.235560536512861e+00
	-3.626575842324864e+00
	-2.144044849409599e-01

 160	1.016084471966627e-04
	-1.234990774059217e+00
	-3.625466294024340e+00
	-2.187904702821752e-01

 161	1.016184471966627e-04
	-1.234556133793057e+00
	-3.623868907765863e+00
	-2.231634566338276e-01

 162	1.016284471966627e-04
	-1.233990276450444e+00
	-3.622763074091506e+00
	-2.275234744531773e-01

 163	1.016384471966627e-04
	-1.233558298455950e+00
	-3.621174120414511e+00
	-2.318705675996942e-01

 164	1.016484471966626e-04
	-1.232996328901235e+00
	-3.620071948031744e+00
	-2.362047663288105e-01

 165	1.016584471966626e-04
	-1.232567001982261e+00
	-3.618491348566068e+00
	-2.405261142328681e-01

 166	1.016684471966626e-04
	-1.232008903139880e+00
	-3.617392783699629e+00
	-2.448346413664106e-01

 167	1.016784471966626e-04
	-1.231582216307038e+00
	-3.615820459542840e+00
	-2.491303910553979e-01

 168	1.016884471966626e-04
	-1.231027971346262e+00
	-3.614725447953179e+00
	-2.534133931544278e-01

 169	1.016984471966626e-04
	-1.230603913826839e+00
	-3.613161319630451e+00
	-2.576836907237690e-01

 170	1.017084471966626e-04
	-1.230053506161031e+00
	-3.612069806589829e+00
	-2.619413134190132e-01

 171	1.017184471966626e-04
	-1.229632067408707e+00
	-3.610513794014595e+00
	-2.661863040353811e-01

 172	1.017284471966626e-04
	-1.229085480694436e+00
	-3.609425724277393e+00
	-2.704186920303915e-01

 173	1.017384471966626e-04
	-1.228666650398674e+00
	-3.607877746711662e+00
	-2.746385199348120e-01

 174	1.017484471966626e-04
	-1.228123868536643e+00
	-3.606793064484482e+00
	-2.788458170090071e-01

 175	1.017584471966626e-04
	-1.227707636631471e+00
	-3.605253040497808e+00
	-2.830406255198423e-01

 176	1.017684471966626e-04
	-1.227168643767763e+00
	-3.604171689405304e+00
	-2.872229745314341e-01

 177	1.017784471966626e-04
	-1.226755000440426e+00
	-3.602639536833251e+00
	-2.913929060472515e-01

 178	1.017884471966626e-04
	-1.226219780968741e+00
	-3.601561459881715e+00
	-2.955504489360474e-01

 179	1.017984471966626e-04
	-1.225808716668637e+00
	-3.600037095784388e+00
	-2.996956449383630e-01

 180	1.018084471966626e-04
	-1.225277255232927e+00
	-3.598962235321761e+00
	-3.038285227284478e-01

 181	1.018184471966626e-04
	-1.224868760679497e+00
	-3.597445575938420e+00
	-3.079491237843341e-01

 182	1.018284471966626e-04
	-1.224341042178148e+00
	-3.596373873613495e+00
	-3.120574765866051e-01

 183	1.018384471966626e-04
	-1.223935108369714e+00
	-3.594864834318463e+00
	-3.161536223511723e-01

 184	1.018484471966625e-04
	-1.223411117959364e+00
	-3.593796231034453e+00
	-3.202375893657528e-01

 185	1.018584471966625e-04
	-1.223007736181540e+00
	-3.592294726289861e+00
	-3.243094185844813e-01

 186	1.018684471966625e-04
	-1.222487459282739e+00
	-3.591229162158227e+00
	-3.283691381029814e-01

 187	1.018784471966625e-04
	-1.222086621116543e+00
	-3.589735105463880e+00
	-3.324167886139167e-01

 188	1.018884471966625e-04
	-1.221570043419136e+00
	-3.588672519752367e+00
	-3.364523980215495e-01

 189	1.018984471966625e-04
	-1.221171740750106e+00
	-3.587185823595700e+00
	-3.404760067573340e-01

 190	1.019084471966625e-04
	-1.220658848219758e+00
	-3.586126154674775e+00
	-3.444876425348693e-01

 191	1.019184471966625e-04
	-1.220263073246609e+00
	-3.584646730476532e+00
	-3.484873455246276e-01

 192	1.019284471966625e-04
	-1.219753852132308e+00
	-3.583589915763268e+00
	-3.524751432501927e-01

 193	1.019384471966625e-04
	-1.219360597375894e+00
	-3.582117673820820e+00
	-3.564510756212340e-01

 194	1.019484471966625e-04
	-1.218855034217135e+00
	-3.581063649716730e+00
	-3.604151699719300e-01

 195	1.019584471966625e-04
	-1.218464292530277e+00
	-3.579598499145767e+00
	-3.643674659512910e-01

 196	1.019684471966625e-04
	-1.217962374166320e+00
	-3.578547200975053e+00
	-3.683079907046438e-01

 197	1.019784471966625e-04
	-1.217574138743152e+00
	-3.577089049646007e+00
	-3.722367836204352e-01

 198	1.019884471966625e-04
	-1.217075852321619e+00
	-3.576040411586147e+00
	-3.761538716556525e-01

 199	1.019984471966625e-04
	-1.216690116708171e+00
	-3.574589166059305e+00
	-3.800592939382286e-01

 200	1.020084471966625e-04
	-1.216195449695424e+00
	-3.573543121070918e+00
	-3.839530772372597e-01

 201	1.020184471966625e-04
	-1.215812207799906e+00
	-3.572098686525745e+00
	-3.878352604201707e-01

 202	1.020284471966625e-04
	-1.215321147991604e+00
	-3.571055166276475e+00
	-3.917058700685638e-01

 203	1.020384471966624e-04
	-1.214940394095970e+00
	-3.569617446439098e+00
	-3.955649447893088e-01

 204	1.020484471966624e-04
	-1.214452929628659e+00
	-3.568576381224124e+00
	-3.994125109768505e-01

 205	1.020584471966624e-04
	-1.214074658400104e+00
	-3.567145278288553e+00
	-4.032486069774026e-01

 206	1.020684471966624e-04
	-1.213590777763313e+00
	-3.566106596945390e+00
	-4.070732589985209e-01

 207	1.020784471966624e-04
	-1.213214984267166e+00
	-3.564682011492297e+00
	-4.108865051256179e-01

 208	1.020884471966624e-04
	-1.212734676316676e+00
	-3.563645641311831e+00
	-4.146883713795653e-01

 209	1.020984471966624e-04
	-1.212361356029184e+00
	-3.562227472219937e+00
	-4.184788955847596e-01

 210	1.021084471966624e-04
	-1.211884610001149e+00
	-3.561193338851867e+00
	-4.222581035755208e-01

 211	1.021184471966624e-04
	-1.211513758823261e+00
	-3.559781483204746e+00
	-4.260260329149599e-01

 212	1.021284471966624e-04
	-1.211040564349045e+00
	-3.558749510556765e+00
	-4.297827092509032e-01

 213	1.021384471966624e-04
	-1.210672178621927e+00
	-3.557343863546318e+00
	-4.335281698848412e-01

 214	1.021484471966624e-04
	-1.210202525744124e+00
	-3.556313973678016e+00
	-4.372624402780874e-01

 215	1.021584471966624e-04
	-1.209836602264053e+00
	-3.554914428497354e+00
	-4.409855574701096e-01

 216	1.021684471966624e-04
	-1.209370481453554e+00
	-3.553886541507417e+00
	-4.446975467356058e-01

 217	1.021784471966624e-04
	-1.209007017489229e+00
	-3.552492989241220e+00
	-4.483984448515455e-01

 218	1.021884471966624e-04
	-1.208544419663119e+00
	-3.551467023147089e+00
	-4.520882769058150e-01

 219	1.021984471966624e-04
	-1.208183412973254e+00
	-3.550079352652400e+00
	-4.557670794123352e-01

 220	1.022084471966624e-04
	-1.207724329514436e+00
	-3.549055223263918e+00
	-4.594348772719026e-01

 221	1.022184471966624e-04
	-1.207365778366728e+00
	-3.547673321043934e+00
	-4.630917067347546e-01

 222	1.022284471966623e-04
	-1.206910201144298e+00
	-3.546650941827592e+00
	-4.667375925142108e-01

 223	1.022384471966623e-04
	-1.206554104335637e+00
	-3.545274691897127e+00
	-4.703725705961053e-01

 224	1.022484471966623e-04
	-1.206102025727031e+00
	-3.544253973832797e+00
	-4.739966655057994e-01

 225	1.022584471966623e-04
	-1.205748382605191e+00
	-3.542883257575133e+00
	-4.776099129639100e-01

 226	1.022684471966623e-04
	-1.205299795519498e+00
	-3.541864109002808e+00
	-4.812123373072437e-01

 227	1.022784471966623e-04
	-1.204948606006105e+00
	-3.540498805016381e+00
	-4.848039739902892e-01

 228	1.022884471966623e-04
	-1.204503503909142e+00
	-3.539481131473544e+00
	-4.883848471605901e-01

 229	1.022984471966623e-04
	-1.204154768524491e+00
	-3.538121115409045e+00
	-4.919549920054882e-01

 230	1.023084471966623e-04
	-1.203713145465224e+00
	-3.537104819456333e+00
	-4.955144324824250e-01

 231	1.023184471966623e-04
	-1.203366865354524e+00
	-3.535749963841711e+00
	-4.990632035104645e-01

 232	1.023284471966623e-04
	-1.202928715994082e+00
	-3.534734944879272e+00
	-5.026013288559890e-01

 233	1.023384471966623e-04
	-1.202584892955884e+00
	-3.533385118933846e+00
	-5.061288431685331e-01

 234	1.023484471966623e-04
	-1.202150212597328e+00
	-3.532371273001789e+00
	-5.096457700223120e-01

 235	1.023584471966623e-04
	-1.201808849113768e+00
	-3.531026342436446e+00
	-5.131521437959501e-01

 236	1.023684471966623e-04
	-1.201377633735024e+00
	-3.530013562004948e+00
	-5.166479878702468e-01

 237	1.023784471966623e-04
	-1.201038733004113e+00
	-3.528673388808265e+00
	-5.201333363513965e-01

 238	1.023884471966623e-04
	-1.200610979292912e+00
	-3.527661562552209e+00
	-5.236082124253740e-01

 239	1.023984471966623e-04
	-1.200274545263510e+00
	-3.526326004762245e+00
	-5.270726499242766e-01

 240	1.024084471966623e-04
	-1.199850250654213e+00
	-3.525315017318631e+00
	-5.305266718376807e-01

 241	1.024184471966622e-04
	-1.199516288063342e+00
	-3.523983928777610e+00
	-5.339703117217582e-01

 242	1.024284471966622e-04
	-1.199095450777289e+00
	-3.522973660488359e+00
	-5.374035923679341e-01

 243	1.024384471966622e-04
	-1.198763965189983e+00
	-3.521646890579051e+00
	-5.408265470544547e-01

 244	1.024484471966622e-04
	-1.198346584278086e+00
	-3.520637217213528e+00
	-5.442391983726482e-01

 245	1.024584471966622e-04
	-1.198017582130962e+00
	-3.519314610578567e+00
	-5.476415793206582e-01

 246	1.024684471966622e-04
	-1.197603657519386e+00
	-3.518305403036161e+00
	-5.510337122875688e-01

 247	1.024784471966622e-04
	-1.197277146166541e+00
	-3.516986799273560e+00
	-5.544156299890353e-01

 248	1.024884471966622e-04
	-1.196866678706398e+00
	-3.515977923266417e+00
	-5.577873546095318e-01

 249	1.024984471966622e-04
	-1.196542666469397e+00
	-3.514663156604527e+00
	-5.611489185796374e-01

 250	1.025084471966622e-04
	-1.196135657989194e+00
	-3.513654472314067e+00
	-5.645003438766190e-01

 251	1.025184471966622e-04
	-1.195814154210581e+00
	-3.512343371260831e+00
	-5.678416626431511e-01

 252	1.025284471966622e-04
	-1.195410607573616e+00
	-3.511334732971709e+00
	-5.711728966464422e-01

 253	1.025384471966622e-04
	-1.195091622674792e+00
	-3.510027119938240e+00
	-5.744940777382039e-01

 254	1.025484471966622e-04
	-1.194691541839623e+00
	-3.509018375640835e+00
	-5.778052274724654e-01

 255	1.025584471966622e-04
	-1.194375087383123e+00
	-3.507714066535416e+00
	-5.811063774066376e-01

 256	1.025684471966622e-04
	-1.193978477470006e+00
	-3.506705057502256e+00
	-5.843975488781674e-01

 257	1.025784471966622e-04
	-1.193664566226363e+00
	-3.505403861292220e+00
	-5.876787731465449e-01

 258	1.025884471966622e-04
	-1.193271433587714e+00
	-3.504394421618137e+00
	-5.909500713289169e-01

 259	1.025984471966622e-04
	-1.192960079608153e+00
	-3.503096139859003e+00
	-5.942114743829228e-01

 260	1.026084471966622e-04
	-1.192570431905337e+00
	-3.502086095968353e+00
	-5.974630032013590e-01

 261	1.026184471966621e-04
	-1.192261650599635e+00
	-3.500790522293948e+00
	-6.007046884357541e-01

 262	1.026284471966621e-04
	-1.191875496885046e+00
	-3.499779692406549e+00
	-6.039365507501411e-01

 263	1.026384471966621e-04
	-1.191569305106367e+00
	-3.498486611980562e+00
	-6.071586204853121e-01

 264	1.026484471966621e-04
	-1.191186655912486e+00
	-3.497474805537053e+00
	-6.103709180717414e-01

 265	1.026584471966621e-04
	-1.190883072048239e+00
	-3.496183994458077e+00
	-6.135734735344713e-01

 266	1.026684471966621e-04
	-1.190503939483773e+00
	-3.495171011498875e+00
	-6.167663070652014e-01

 267	1.026784471966621e-04
	-1.190202983554697e+00
	-3.493882236159803e+00
	-6.199494483677856e-01

 268	1.026884471966621e-04
	-1.189827381408187e+00
	-3.492867866653253e+00
	-6.231229173894826e-01

 269	1.026984471966621e-04
	-1.189529075174690e+00
	-3.491580883045637e+00
	-6.262867435070643e-01

 270	1.027084471966621e-04
	-1.189157019027117e+00
	-3.490564906163126e+00
	-6.294409464171942e-01

 271	1.027184471966621e-04
	-1.188861386105101e+00
	-3.489279459126758e+00
	-6.325855551631752e-01

 272	1.027284471966621e-04
	-1.188492893450747e+00
	-3.488261642455536e+00
	-6.357205891843907e-01

 273	1.027384471966621e-04
	-1.188199959436885e+00
	-3.486977464865213e+00
	-6.388460771837492e-01

 274	1.027484471966621e-04
	-1.187835049815093e+00
	-3.485957563559356e+00
	-6.419620383361062e-01

 275	1.027584471966621e-04
	-1.187544842422149e+00
	-3.484674375442894e+00
	-6.450685009964663e-01

 276	1.027684471966621e-04
	-1.187183537559589e+00
	-3.483652131302390e+00
	-6.481654840672877e-01

 277	1.027784471966621e-04
	-1.186896086763607e+00
	-3.482369638886601e+00
	-6.512530155475340e-01

 278	1.027884471966621e-04
	-1.186538410728254e+00
	-3.481344779359316e+00
	-6.543311140587322e-01

 279	1.027984471966621e-04
	-1.186253748927816e+00
	-3.480062674034870e+00
	-6.573998072349836e-01

 280	1.028084471966620e-04
	-1.185899728296044e+00
	-3.479034911135920e+00
	-6.604591134076201e-01

 281	1.028184471966620e-04
	-1.185617890485060e+00
	-3.477752868335588e+00
	-6.635090598363180e-01

 282	1.028284471966620e-04
	-1.185267554522381e+00
	-3.476721897474832e+00
	-6.665496645521718e-01

 283	1.028384471966620e-04
	-1.184988578477438e+00
	-3.475439575457007e+00
	-6.695809544300633e-01

 284	1.028484471966620e-04
	-1.184641959335089e+00
	-3.474405074170586e+00
	-6.726029471899575e-01

 285	1.028584471966620e-04
	-1.184365885818344e+00
	-3.473122112699795e+00
	-6.756156693106981e-01

 286	1.028684471966620e-04
	-1.184023018745481e+00
	-3.472083739272123e+00
	-6.786191381893079e-01

 287	1.028784471966620e-04
	-1.183749891725179e+00
	-3.470799758190343e+00
	-6.816133798964032e-01

 288	1.028884471966620e-04
	-1.183410815299330e+00
	-3.469757150162995e+00
	-6.845984114932566e-01

 289	1.028984471966620e-04
	-1.183140682188351e+00
	-3.468471747839967e+00
	-6.875742586290423e-01

 290	1.029084471966620e-04
	-1.182805438564822e+00
	-3.467424520395877e+00
	-6.905409380153875e-01

 291	1.029184471966620e-04
	-1.182538350479394e+00
	-3.466137272051711e+00
	-6.934984748656974e-01

 292	1.029284471966620e-04
	-1.182206985661411e+00
	-3.465085016266881e+00
	-6.964468855269050e-01

 293	1.029384471966620e-04
	-1.181942997700633e+00
	-3.463795472155533e+00
	-6.993861947611113e-01

 294	1.029484471966620e-04
	-1.181615561831362e+00
	-3.462737753107712e+00
	-7.023164185342341e-01

 295	1.029584471966620e-04
	-1.181354733380036e+00
	-3.461445436555381e+00
	-7.052375811402372e-01

 296	1.029684471966620e-04
	-1.181031281058009e+00
	-3.460381791281846e+00
	-7.081496981463449e-01

 297	1.029784471966620e-04
	-1.180773676113176e+00
	-3.459086196568469e+00
	-7.110527933601465e-01

 298	1.029884471966620e-04
	-1.180454266732411e+00
	-3.458016131863879e+00
	-7.139468819310228e-01

 299	1.029984471966619e-04
	-1.180199954255561e+00
	-3.456716721942022e+00
	-7.168319871604392e-01
