Title: *** simple.cir ***
Date: Thu Mar 12 15:00:14  2015
Plotname: Transient Analysis
Flags: real
No. Variables: 4
No. Points: 1001
Variables:
	0	time	time
	1	v(c1)	voltage
	2	v(c2)	voltage
	3	v(e1)-v(e2)	notype
Values:
 0	1.000002800000980e-05
	-8.744181513430532e-01
	-3.097440603558682e-01
	1.485782860662321e-01

 1	1.000012800000980e-05
	-8.727264170158324e-01
	-3.101501143729267e-01
	1.495186136618014e-01

 2	1.000022800000980e-05
	-8.710255044655736e-01
	-3.105776902898182e-01
	1.504458688093990e-01

 3	1.000032800000980e-05
	-8.693150768187560e-01
	-3.110275297548510e-01
	1.513600295876341e-01

 4	1.000042800000980e-05
	-8.675947711195491e-01
	-3.115003941539328e-01
	1.522610693176714e-01

 5	1.000052800000980e-05
	-8.658641984379577e-01
	-3.119970642537431e-01
	1.531489564331441e-01

 6	1.000062800000980e-05
	-8.641229440118041e-01
	-3.125183397773656e-01
	1.540236543532698e-01

 7	1.000072800000980e-05
	-8.623705674238883e-01
	-3.130650389099653e-01
	1.548851213595599e-01

 8	1.000082800000980e-05
	-8.606066028170273e-01
	-3.136379977341379e-01
	1.557333104765406e-01

 9	1.000092800000980e-05
	-8.588305591500859e-01
	-3.142380695955406e-01
	1.565681693568850e-01

 10	1.000102800000980e-05
	-8.570419204951102e-01
	-3.148661243970370e-01
	1.573896401713792e-01

 11	1.000112800000980e-05
	-8.552401463799899e-01
	-3.155230478247561e-01
	1.581976595041468e-01

 12	1.000122800000980e-05
	-8.534246721760215e-01
	-3.162097405051047e-01
	1.589921582535405e-01

 13	1.000132800000980e-05
	-8.515949095333307e-01
	-3.169271170962731e-01
	1.597730615391186e-01

 14	1.000142800000980e-05
	-8.497502468648521e-01
	-3.176761053164471e-01
	1.605402886151102e-01

 15	1.000152800000980e-05
	-8.478900498801715e-01
	-3.184576449123991e-01
	1.612937527907601e-01

 16	1.000162800000980e-05
	-8.460136621694933e-01
	-3.192726865720600e-01
	1.620333613579299e-01

 17	1.000172800000980e-05
	-8.441204058385390e-01
	-3.201221907861500e-01
	1.627590155263055e-01

 18	1.000182800000980e-05
	-8.422095821946071e-01
	-3.210071266643777e-01
	1.634706103665482e-01

 19	1.000192800000980e-05
	-8.402804724824789e-01
	-3.219284707110674e-01
	1.641680347616932e-01

 20	1.000202800000980e-05
	-8.383323386715255e-01
	-3.228872055685728e-01
	1.648511713670646e-01

 21	1.000212800000980e-05
	-8.363644242911689e-01
	-3.238843187334818e-01
	1.655198965789513e-01

 22	1.000222800000980e-05
	-8.343759553145305e-01
	-3.249208012540884e-01
	1.661740805122416e-01

 23	1.000232800000980e-05
	-8.323661410885671e-01
	-3.259976464167040e-01
	1.668135869871832e-01

 24	1.000242800000980e-05
	-8.303341753085447e-01
	-3.271158484284635e-01
	1.674382735253874e-01

 25	1.000252800000980e-05
	-8.282792370347807e-01
	-3.282764011048070e-01
	1.680479913551545e-01

 26	1.000262800000980e-05
	-8.262004917493019e-01
	-3.294802965698837e-01
	1.686425854261584e-01

 27	1.000272800000980e-05
	-8.240970924493868e-01
	-3.307285239775288e-01
	1.692218944334760e-01

 28	1.000282800000980e-05
	-8.219681807756237e-01
	-3.320220682611592e-01
	1.697857508509042e-01

 29	1.000292800000980e-05
	-8.198128881704965e-01
	-3.333619089192157e-01
	1.703339809734730e-01

 30	1.000302800000980e-05
	-8.176303370652244e-01
	-3.347490188441003e-01
	1.708664049690087e-01

 31	1.000312800000980e-05
	-8.154196420909126e-01
	-3.361843632005029e-01
	1.713828369385619e-01

 32	1.000322800000980e-05
	-8.131799113101608e-01
	-3.376688983584594e-01
	1.718830849854887e-01

 33	1.000332800000980e-05
	-8.109102474673306e-01
	-3.392035708877729e-01
	1.723669512929291e-01

 34	1.000342800000980e-05
	-8.086097492523117e-01
	-3.407893166161293e-01
	1.728342322094014e-01

 35	1.000352800000981e-05
	-8.062775125756165e-01
	-3.424270597552919e-01
	1.732847183422010e-01

 36	1.000362800000981e-05
	-8.039126318510874e-01
	-3.441177120971147e-01
	1.737181946582749e-01

 37	1.000372800000981e-05
	-8.015142012841980e-01
	-3.458621722815103e-01
	1.741344405922289e-01

 38	1.000382800000981e-05
	-7.990813161619783e-01
	-3.476613251353528e-01
	1.745332301611096e-01

 39	1.000392800000981e-05
	-7.966130741435886e-01
	-3.495160410830188e-01
	1.749143320855966e-01

 40	1.000402800000981e-05
	-7.941085765480944e-01
	-3.514271756253750e-01
	1.752775099172470e-01

 41	1.000412800000981e-05
	-7.915669296386427e-01
	-3.533955688854704e-01
	1.756225221714400e-01

 42	1.000422800000981e-05
	-7.889872459015421e-01
	-3.554220452170770e-01
	1.759491224656728e-01

 43	1.000432800000981e-05
	-7.863686453186609e-01
	-3.575074128709413e-01
	1.762570596628845e-01

 44	1.000442800000981e-05
	-7.837102566332678e-01
	-3.596524637140897e-01
	1.765460780195029e-01

 45	1.000452800000981e-05
	-7.810112186089792e-01
	-3.618579729959857e-01
	1.768159173379344e-01

 46	1.000462800000981e-05
	-7.782706812817657e-01
	-3.641246991545232e-01
	1.770663131232499e-01

 47	1.000472800000981e-05
	-7.754878072061488e-01
	-3.664533836551817e-01
	1.772969967438529e-01

 48	1.000482800000981e-05
	-7.726617726963173e-01
	-3.688447508553864e-01
	1.775076955959505e-01

 49	1.000492800000981e-05
	-7.697917690640443e-01
	-3.712995078865756e-01
	1.776981332716976e-01

 50	1.000502800000981e-05
	-7.668770038549723e-01
	-3.738183445456009e-01
	1.778680297309174e-01

 51	1.000512800000981e-05
	-7.639167020859369e-01
	-3.764019331876750e-01
	1.780171014763430e-01

 52	1.000522800000981e-05
	-7.609101074852416e-01
	-3.790509286120393e-01
	1.781450617323865e-01

 53	1.000532800000981e-05
	-7.578564837400834e-01
	-3.817659679335004e-01
	1.782516206274720e-01

 54	1.000542800000981e-05
	-7.547551157528465e-01
	-3.845476704303675e-01
	1.783364853800187e-01

 55	1.000552800000981e-05
	-7.516053109114001e-01
	-3.873966373627491e-01
	1.783993604882150e-01

 56	1.000562800000981e-05
	-7.484064003757598e-01
	-3.903134517523653e-01
	1.784399479237613e-01

 57	1.000572800000981e-05
	-7.451577403860952e-01
	-3.932986781177921e-01
	1.784579473298056e-01

 58	1.000582800000981e-05
	-7.418587135962668e-01
	-3.963528621584422e-01
	1.784530562233417e-01

 59	1.000592800000981e-05
	-7.385087304364044e-01
	-3.994765303800915e-01
	1.784249702023817e-01

 60	1.000602800000981e-05
	-7.351072305098945e-01
	-4.026701896569786e-01
	1.783733831582586e-01

 61	1.000612800000981e-05
	-7.316536840293670e-01
	-4.059343267249765e-01
	1.782979874934458e-01

 62	1.000622800000981e-05
	-7.281475932959147e-01
	-4.092694076002558e-01
	1.781984743453244e-01

 63	1.000632800000981e-05
	-7.245884942264755e-01
	-4.126758769190308e-01
	1.780745338163618e-01

 64	1.000642800000981e-05
	-7.209759579345467e-01
	-4.161541571945100e-01
	1.779258552112042e-01

 65	1.000652800000981e-05
	-7.173095923685383e-01
	-4.197046479866252e-01
	1.777521272812077e-01

 66	1.000662800000981e-05
	-7.135890440128013e-01
	-4.233277249813249e-01
	1.775530384769701e-01

 67	1.000672800000981e-05
	-7.098139996560912e-01
	-4.270237389762111e-01
	1.773282772094551e-01

 68	1.000682800000981e-05
	-7.059841882325076e-01
	-4.307930147699687e-01
	1.770775321203168e-01

 69	1.000692800000981e-05
	-7.020993827382138e-01
	-4.346358499516876e-01
	1.768004923620659e-01

 70	1.000702800000981e-05
	-6.981594022306720e-01
	-4.385525135899588e-01
	1.764968478887416e-01

 71	1.000712800000981e-05
	-6.941641139124274e-01
	-4.425432448172484e-01
	1.761662897577687e-01

 72	1.000722800000981e-05
	-6.901134353049194e-01
	-4.466082513089353e-01
	1.758085104437015e-01

 73	1.000732800000981e-05
	-6.860073365165774e-01
	-4.507477076555250e-01
	1.754232041645762e-01

 74	1.000742800000981e-05
	-6.818458426077533e-01
	-4.549617536252162e-01
	1.750100672215997e-01

 75	1.000752800000981e-05
	-6.776290360568837e-01
	-4.592504923163657e-01
	1.745687983529307e-01

 76	1.000762800000981e-05
	-6.733570593310766e-01
	-4.636139881985889e-01
	1.740990991023104e-01

 77	1.000772800000981e-05
	-6.690301175629498e-01
	-4.680522650404088e-01
	1.736006742033096e-01

 78	1.000782800000981e-05
	-6.646484813375563e-01
	-4.725653037239759e-01
	1.730732319799717e-01

 79	1.000792800000981e-05
	-6.602124895893303e-01
	-4.771530399441107e-01
	1.725164847646292e-01

 80	1.000802800000982e-05
	-6.557225526123699e-01
	-4.818153617930741e-01
	1.719301493336811e-01

 81	1.000812800000982e-05
	-6.511791551832663e-01
	-4.865521072292571e-01
	1.713139473621075e-01

 82	1.000822800000982e-05
	-6.465828597960797e-01
	-4.913630614292258e-01
	1.706676058974961e-01

 83	1.000832800000982e-05
	-6.419343100100744e-01
	-4.962479540249044e-01
	1.699908578543501e-01

 84	1.000842800000982e-05
	-6.372342339065385e-01
	-5.012064562245105e-01
	1.692834425294221e-01

 85	1.000852800000982e-05
	-6.324834476522135e-01
	-5.062381778186744e-01
	1.685451061388048e-01

 86	1.000862800000982e-05
	-6.276828591650868e-01
	-5.113426640730517e-01
	1.677756023774823e-01

 87	1.000872800000982e-05
	-6.228334718761539e-01
	-5.165193925086122e-01
	1.669746930020066e-01

 88	1.000882800000982e-05
	-6.179363885802086e-01
	-5.217677695724272e-01
	1.661421484369234e-01

 89	1.000892800000982e-05
	-6.129928153657422e-01
	-5.270871272014124e-01
	1.652777484055221e-01

 90	1.000902800000982e-05
	-6.080040656126937e-01
	-5.324767192830241e-01
	1.643812825854143e-01

 91	1.000912800000982e-05
	-6.029715640442749e-01
	-5.379357180176505e-01
	1.634525512893736e-01

 92	1.000922800000982e-05
	-5.978968508164274e-01
	-5.434632101885088e-01
	1.624913661717815e-01

 93	1.000932800000982e-05
	-5.927815856250730e-01
	-5.490581933456163e-01
	1.614975509609153e-01

 94	1.000942800000982e-05
	-5.876275518091885e-01
	-5.547195719129129e-01
	1.604709422171924e-01

 95	1.000952800000982e-05
	-5.824366604229516e-01
	-5.604461532280259e-01
	1.594113901173424e-01

 96	1.000962800000982e-05
	-5.772109542463674e-01
	-5.662366435261068e-01
	1.583187592643172e-01

 97	1.000972800000982e-05
	-5.719526117006872e-01
	-5.720896438823919e-01
	1.571929295225645e-01

 98	1.000982800000982e-05
	-5.666639506281996e-01
	-5.780036461284805e-01
	1.560337968780705e-01

 99	1.000992800000982e-05
	-5.613474318923145e-01
	-5.839770287612119e-01
	1.548412743223335e-01

 100	1.001002800000982e-05
	-5.560056627472588e-01
	-5.900080528648474e-01
	1.536152927591741e-01

 101	1.001012800000982e-05
	-5.506413999216303e-01
	-5.960948580710937e-01
	1.523558019329632e-01

 102	1.001022800000982e-05
	-5.452575523528961e-01
	-6.022354585839959e-01
	1.510627713765080e-01

 103	1.001032800000982e-05
	-5.398571835029274e-01
	-6.084277393000161e-01
	1.497361913764723e-01

 104	1.001042800000982e-05
	-5.344435131793873e-01
	-6.146694520590726e-01
	1.483760739537718e-01

 105	1.001052800000982e-05
	-5.290199187783111e-01
	-6.209582120641045e-01
	1.469824538559208e-01

 106	1.001062800000982e-05
	-5.235899358572479e-01
	-6.272914945122733e-01
	1.455553895578143e-01

 107	1.001072800000982e-05
	-5.181572579411859e-01
	-6.336666314855059e-01
	1.440949642668707e-01

 108	1.001082800000982e-05
	-5.127257354564316e-01
	-6.400808091525406e-01
	1.426012869278694e-01

 109	1.001092800000982e-05
	-5.072993736797666e-01
	-6.465310653380888e-01
	1.410744932221863e-01

 110	1.001102800000982e-05
	-5.018823295872827e-01
	-6.530142875220872e-01
	1.395147465554549e-01

 111	1.001112800000982e-05
	-4.964789074800141e-01
	-6.595272113341707e-01
	1.379222390269734e-01

 112	1.001122800000982e-05
	-4.910935532612920e-01
	-6.660664196138181e-01
	1.362971923734477e-01

 113	1.001132800000982e-05
	-4.857308472408902e-01
	-6.726283421120222e-01
	1.346398588789000e-01

 114	1.001142800000982e-05
	-4.803954953392454e-01
	-6.792092559110412e-01
	1.329505222418073e-01

 115	1.001152800000982e-05
	-4.750923185716672e-01
	-6.858052866440469e-01
	1.312294983897901e-01

 116	1.001162800000982e-05
	-4.698262406998657e-01
	-6.924124105981853e-01
	1.294771362314195e-01

 117	1.001172800000982e-05
	-4.646022739468140e-01
	-6.990264577822697e-01
	1.276938183340368e-01

 118	1.001182800000982e-05
	-4.594255026926233e-01
	-7.056431160446527e-01
	1.258799615158410e-01

 119	1.001192800000982e-05
	-4.543010650845506e-01
	-7.122579363182570e-01
	1.240360173399719e-01

 120	1.001202800000982e-05
	-4.492341325260911e-01
	-7.188663390695659e-01
	1.221624724979216e-01

 121	1.001212800000982e-05
	-4.442298870415186e-01
	-7.254636220195290e-01
	1.202598490693334e-01

 122	1.001222800000982e-05
	-4.392934965505439e-01
	-7.320449691935921e-01
	1.183287046452084e-01

 123	1.001232800000982e-05
	-4.344300881358983e-01
	-7.386054613481069e-01
	1.163696323016938e-01

 124	1.001242800000982e-05
	-4.296447194354929e-01
	-7.451400878022042e-01
	1.143832604120547e-01

 125	1.001252800000982e-05
	-4.249423483484681e-01
	-7.516437596869081e-01
	1.123702522851584e-01

 126	1.001262800000983e-05
	-4.203278013063058e-01
	-7.581113246026788e-01
	1.103313056198432e-01

 127	1.001272800000983e-05
	-4.158057404204230e-01
	-7.645375826491069e-01
	1.082671517659328e-01

 128	1.001282800000983e-05
	-4.113806298850800e-01
	-7.709173037668140e-01
	1.061785547844223e-01

 129	1.001292800000983e-05
	-4.070567020750518e-01
	-7.772452463006322e-01
	1.040663103014667e-01

 130	1.001302800000983e-05
	-4.028379238353133e-01
	-7.835161766624118e-01
	1.019312441532958e-01

 131	1.001312800000983e-05
	-3.987279635128507e-01
	-7.897248899427447e-01
	9.977421082197813e-02

 132	1.001322800000983e-05
	-3.947301593183861e-01
	-7.958662312875527e-01
	9.759609166506023e-02

 133	1.001332800000983e-05
	-3.908474896352056e-01
	-8.019351178292576e-01
	9.539779294545081e-02

 134	1.001342800000983e-05
	-3.870825458996315e-01
	-8.079265609330269e-01
	9.318024367139399e-02

 135	1.001352800000983e-05
	-3.834375086710924e-01
	-8.138356884986598e-01
	9.094439325995518e-02

 136	1.001362800000983e-05
	-3.799141274778113e-01
	-8.196577670396417e-01
	8.869120904095551e-02

 137	1.001372800000983e-05
	-3.765137049727267e-01
	-8.253882232503960e-01
	8.642167362165454e-02

 138	1.001382800000983e-05
	-3.732370858607784e-01
	-8.310226647693093e-01
	8.413678213559717e-02

 139	1.001392800000983e-05
	-3.700846509626755e-01
	-8.365568998474641e-01
	8.183753940173721e-02

 140	1.001402800000983e-05
	-3.670563166698694e-01
	-8.419869556470346e-01
	7.952495702216034e-02

 141	1.001412800000983e-05
	-3.641515399155391e-01
	-8.473090949102896e-01
	7.720005044835077e-02

 142	1.001422800000983e-05
	-3.613693286532452e-01
	-8.525198307709393e-01
	7.486383604687674e-02

 143	1.001432800000983e-05
	-3.587082576914715e-01
	-8.576159395109448e-01
	7.251732819558931e-02

 144	1.001442800000983e-05
	-3.561664895961357e-01
	-8.625944711082159e-01
	7.016153644089540e-02

 145	1.001452800000983e-05
	-3.537418002409931e-01
	-8.674527574628725e-01
	6.779746274538700e-02

 146	1.001462800000983e-05
	-3.514316084715007e-01
	-8.721884182385826e-01
	6.542609885314699e-02

 147	1.001472800000983e-05
	-3.492330092492978e-01
	-8.767993643019750e-01
	6.304842379744624e-02

 148	1.001482800000983e-05
	-3.471428095706200e-01
	-8.812837987902821e-01
	6.066540157241418e-02

 149	1.001492800000983e-05
	-3.451575664038891e-01
	-8.856402158818359e-01
	5.827797898671827e-02

 150	1.001502800000983e-05
	-3.432736258706525e-01
	-8.898673973845466e-01
	5.588708371345730e-02

 151	1.001512800000983e-05
	-3.414871628998598e-01
	-8.939644072927707e-01
	5.349362254648504e-02

 152	1.001522800000983e-05
	-3.397942206151842e-01
	-8.979305844908698e-01
	5.109847986938698e-02

 153	1.001532800000983e-05
	-3.381907487702305e-01
	-9.017655338058589e-01
	4.870251633945255e-02

 154	1.001542800000983e-05
	-3.366726406167961e-01
	-9.054691156256364e-01
	4.630656778532893e-02

 155	1.001552800000983e-05
	-3.352357676778311e-01
	-9.090414343084282e-01
	4.391144431370853e-02

 156	1.001562800000983e-05
	-3.338760119919154e-01
	-9.124828256112737e-01
	4.151792961747525e-02

 157	1.001572800000983e-05
	-3.325892954960785e-01
	-9.157938433618262e-01
	3.912678047525020e-02

 158	1.001582800000983e-05
	-3.313716063134534e-01
	-9.189752455888731e-01
	3.673872643026410e-02

 159	1.001592800000983e-05
	-3.302190218085769e-01
	-9.220279803140942e-01
	3.435446963496647e-02

 160	1.001602800000983e-05
	-3.291277283634002e-01
	-9.249531711927216e-01
	3.197468484671706e-02

 161	1.001612800000983e-05
	-3.280940379042384e-01
	-9.277521031697150e-01
	2.960001955930114e-02

 162	1.001622800000983e-05
	-3.271144012820286e-01
	-9.304262083020135e-01
	2.723109425479997e-02

 163	1.001632800000983e-05
	-3.261854186616855e-01
	-9.329770518738647e-01
	2.486850276047559e-02

 164	1.001642800000983e-05
	-3.253038471212738e-01
	-9.354063189128144e-01
	2.251281269577987e-02

 165	1.001652800000983e-05
	-3.244666056959798e-01
	-9.377158011963121e-01
	2.016456599526784e-02

 166	1.001662800000983e-05
	-3.236707781181840e-01
	-9.399073848156354e-01
	1.782427949406085e-02

 167	1.001672800000983e-05
	-3.229136135211993e-01
	-9.419830383520454e-01
	1.549244556350526e-02

 168	1.001682800000983e-05
	-3.221925253721494e-01
	-9.439448017002422e-01
	1.316953278574395e-02

 169	1.001692800000983e-05
	-3.215050888955963e-01
	-9.457947755615639e-01
	1.085598665705412e-02

 170	1.001702800000983e-05
	-3.208490372401850e-01
	-9.475351116188594e-01
	8.552230310933329e-03

 171	1.001712800000984e-05
	-3.202222566226294e-01
	-9.491680033922083e-01
	6.258665253025431e-03

 172	1.001722800000984e-05
	-3.196227806658835e-01
	-9.506956777668611e-01
	3.975672101050876e-03

 173	1.001732800000984e-05
	-3.190487841290169e-01
	-9.521203871788156e-01
	1.703611323904397e-03

 174	1.001742800000984e-05
	-3.184985762037360e-01
	-9.534444024368472e-01
	-5.571760249813984e-04

 175	1.001752800000984e-05
	-3.179705935298848e-01
	-9.546700061542980e-01
	-2.806367584053060e-03

 176	1.001762800000984e-05
	-3.174633930644762e-01
	-9.557994867640454e-01
	-5.043658973118426e-03

 177	1.001772800000984e-05
	-3.169756449151008e-01
	-9.568351330844433e-01
	-7.268763098497999e-03

 178	1.001782800000984e-05
	-3.165061252321478e-01
	-9.577792294049112e-01
	-9.481409475845304e-03

 179	1.001792800000984e-05
	-3.160537092361365e-01
	-9.586340510583405e-01
	-1.168134357211414e-02

 180	1.001802800000984e-05
	-3.156173644414116e-01
	-9.594018604479373e-01
	-1.386832616771327e-02

 181	1.001812800000984e-05
	-3.151961441231267e-01
	-9.600849034959612e-01
	-1.604213273950394e-02

 182	1.001822800000984e-05
	-3.147891810626822e-01
	-9.606854064829077e-01
	-1.820255286497696e-02

 183	1.001832800000984e-05
	-3.143956815973623e-01
	-9.612055732476703e-01
	-2.034938964769006e-02

 184	1.001842800000984e-05
	-3.140149199889441e-01
	-9.616475827184900e-01
	-2.248245916383329e-02

 185	1.001852800000984e-05
	-3.136462331209020e-01
	-9.620135867480946e-01
	-2.460158992961547e-02

 186	1.001862800000984e-05
	-3.132890155261575e-01
	-9.623057082262902e-01
	-2.670662238903221e-02

 187	1.001872800000984e-05
	-3.129427147436892e-01
	-9.625260394463027e-01
	-2.879740842147616e-02

 188	1.001882800000984e-05
	-3.126068269970466e-01
	-9.626766407012834e-01
	-3.087381086857910e-02

 189	1.001892800000984e-05
	-3.122808931856822e-01
	-9.627595390898722e-01
	-3.293570307960847e-02

 190	1.001902800000984e-05
	-3.119644951779565e-01
	-9.627767275114694e-01
	-3.498296847472071e-02

 191	1.001912800000984e-05
	-3.116572523917810e-01
	-9.627301638320507e-01
	-3.701550012534494e-02

 192	1.001922800000984e-05
	-3.113588186495114e-01
	-9.626217702045841e-01
	-3.903320035096680e-02

 193	1.001932800000984e-05
	-3.110688792917280e-01
	-9.624534325281071e-01
	-4.103598033158606e-02

 194	1.001942800000984e-05
	-3.107871485342063e-01
	-9.622270000306344e-01
	-4.302375973511907e-02

 195	1.001952800000984e-05
	-3.105133670539645e-01
	-9.619442849640061e-01
	-4.499646635905385e-02

 196	1.001962800000984e-05
	-3.102472997884306e-01
	-9.616070623977266e-01
	-4.695403578566326e-02

 197	1.001972800000984e-05
	-3.099887339335167e-01
	-9.612170701012580e-01
	-4.889641105011489e-02

 198	1.001982800000984e-05
	-3.097374771263380e-01
	-9.607760085045870e-01
	-5.082354232084230e-02

 199	1.001992800000984e-05
	-3.094933557998089e-01
	-9.602855407286278e-01
	-5.273538659155808e-02

 200	1.002002800000984e-05
	-3.092562136951549e-01
	-9.597472926760565e-01
	-5.463190738432822e-02

 201	1.002012800000984e-05
	-3.090259105215090e-01
	-9.591628531762014e-01
	-5.651307446314435e-02

 202	1.002022800000984e-05
	-3.088023207507620e-01
	-9.585337741766370e-01
	-5.837886355745603e-02

 203	1.002032800000984e-05
	-3.085853325366469e-01
	-9.578615709747934e-01
	-6.022925609515495e-02

 204	1.002042800000984e-05
	-3.083748467494978e-01
	-9.571477224851789e-01
	-6.206423894452628e-02

 205	1.002052800000984e-05
	-3.081707761163611e-01
	-9.563936715359129e-01
	-6.388380416469941e-02

 206	1.002062800000984e-05
	-3.079730444586969e-01
	-9.556008251905878e-01
	-6.568794876416284e-02

 207	1.002072800000984e-05
	-3.077815860198466e-01
	-9.547705550911399e-01
	-6.747667446692196e-02

 208	1.002082800000984e-05
	-3.075963448750318e-01
	-9.539041978177931e-01
	-6.924998748589628e-02

 209	1.002092800000984e-05
	-3.074172744172799e-01
	-9.530030552626048e-01
	-7.100789830317833e-02

 210	1.002102800000984e-05
	-3.072443369140495e-01
	-9.520683950141791e-01
	-7.275042145678690e-02

 211	1.002112800000984e-05
	-3.070775031277741e-01
	-9.511014507494682e-01
	-7.447757533357091e-02

 212	1.002122800000984e-05
	-3.069167519962464e-01
	-9.501034226308500e-01
	-7.618938196792557e-02

 213	1.002132800000984e-05
	-3.067620703690801e-01
	-9.490754777070255e-01
	-7.788586684600451e-02

 214	1.002142800000984e-05
	-3.066134527937672e-01
	-9.480187503132943e-01
	-7.956705871512426e-02

 215	1.002152800000984e-05
	-3.064709013502417e-01
	-9.469343424718079e-01
	-8.123298939806167e-02

 216	1.002162800000984e-05
	-3.063344255291637e-01
	-9.458233242888046e-01
	-8.288369361196635e-02

 217	1.002172800000985e-05
	-3.062040421503988e-01
	-9.446867343467382e-01
	-8.451920879161490e-02

 218	1.002182800000985e-05
	-3.060797753205628e-01
	-9.435255800915149e-01
	-8.613957491674373e-02

 219	1.002192800000985e-05
	-3.059616564257003e-01
	-9.423408382121538e-01
	-8.774483434320901e-02

 220	1.002202800000985e-05
	-3.058497241573632e-01
	-9.411334550122782e-01
	-8.933503163772372e-02

 221	1.002212800000985e-05
	-3.057440245697444e-01
	-9.399043467720644e-01
	-9.091021341594141e-02

 222	1.002222800000985e-05
	-3.056446111668331e-01
	-9.386544001004911e-01
	-9.247042818365303e-02

 223	1.002232800000985e-05
	-3.055515450164247e-01
	-9.373844722756485e-01
	-9.401572618087384e-02

 224	1.002242800000985e-05
	-3.054648948910625e-01
	-9.360953915738494e-01
	-9.554615922860643e-02

 225	1.002252800000985e-05
	-3.053847374333959e-01
	-9.347879575857925e-01
	-9.706178057806492e-02

 226	1.002262800000985e-05
	-3.053111573449434e-01
	-9.334629415194357e-01
	-9.856264476216081e-02

 227	1.002272800000985e-05
	-3.052442475972107e-01
	-9.321210864891138e-01
	-1.000488074490522e-01

 228	1.002282800000985e-05
	-3.051841096640782e-01
	-9.307631077904459e-01
	-1.015203252975554e-01

 229	1.002292800000985e-05
	-3.051308537741498e-01
	-9.293896931603550e-01
	-1.029772558142383e-01

 230	1.002302800000985e-05
	-3.050845991823269e-01
	-9.280015030220116e-01
	-1.044196572120146e-01

 231	1.002312800000985e-05
	-3.050454744597120e-01
	-9.265991707144579e-01
	-1.058475882700538e-01

 232	1.002322800000985e-05
	-3.050136178003310e-01
	-9.251833027060394e-01
	-1.072611081948383e-01

 233	1.002332800000985e-05
	-3.049891773447845e-01
	-9.237544787923933e-01
	-1.086602764822024e-01

 234	1.002342800000985e-05
	-3.049723115192806e-01
	-9.223132522782285e-01
	-1.100451527801907e-01

 235	1.002352800000985e-05
	-3.049631893888737e-01
	-9.208601501424882e-01
	-1.114157967525777e-01

 236	1.002362800000985e-05
	-3.049619910248995e-01
	-9.193956731877377e-01
	-1.127722679429017e-01

 237	1.002372800000985e-05
	-3.049689078845615e-01
	-9.179202961726801e-01
	-1.141146256388659e-01

 238	1.002382800000985e-05
	-3.049841432028884e-01
	-9.164344679290743e-01
	-1.154429287369689e-01

 239	1.002392800000985e-05
	-3.050079123947521e-01
	-9.149386114619069e-01
	-1.167572356072379e-01

 240	1.002402800000985e-05
	-3.050404434670213e-01
	-9.134331240341970e-01
	-1.180576039579382e-01

 241	1.002412800000985e-05
	-3.050819774384101e-01
	-9.119183772353889e-01
	-1.193440907001380e-01

 242	1.002422800000985e-05
	-3.051327687669241e-01
	-9.103947170347817e-01
	-1.206167518120238e-01

 243	1.002432800000985e-05
	-3.051930857831172e-01
	-9.088624638199576e-01
	-1.218756422028715e-01

 244	1.002442800000985e-05
	-3.052632111271882e-01
	-9.073219124201787e-01
	-1.231208155765771e-01

 245	1.002452800000985e-05
	-3.053434421893979e-01
	-9.057733321163052e-01
	-1.243523242946636e-01

 246	1.002462800000985e-05
	-3.054340915507971e-01
	-9.042169666364899e-01
	-1.255702192387020e-01

 247	1.002472800000985e-05
	-3.055354874240879e-01
	-9.026530341399724e-01
	-1.267745496720813e-01

 248	1.002482800000985e-05
	-3.056479740907819e-01
	-9.010817271878793e-01
	-1.279653631010831e-01

 249	1.002492800000985e-05
	-3.057719123346199e-01
	-8.995032127038954e-01
	-1.291427051352270e-01

 250	1.002502800000985e-05
	-3.059076798673853e-01
	-8.979176319241317e-01
	-1.303066193468672e-01

 251	1.002512800000985e-05
	-3.060556717454545e-01
	-8.963251003379642e-01
	-1.314571471300323e-01

 252	1.002522800000985e-05
	-3.062163007749680e-01
	-8.947257076212961e-01
	-1.325943275585169e-01

 253	1.002532800000985e-05
	-3.063899979021848e-01
	-8.931195175627756e-01
	-1.337181972432533e-01

 254	1.002542800000985e-05
	-3.065772125871401e-01
	-8.915065679852072e-01
	-1.348287901890042e-01

 255	1.002552800000985e-05
	-3.067784131570467e-01
	-8.898868706629547e-01
	-1.359261376504359e-01

 256	1.002562800000985e-05
	-3.069940871364726e-01
	-8.882604112369710e-01
	-1.370102679876517e-01

 257	1.002572800000985e-05
	-3.072247415522681e-01
	-8.866271491302421e-01
	-1.380812065212820e-01

 258	1.002582800000985e-05
	-3.074709032082392e-01
	-8.849870174637302e-01
	-1.391389753872505e-01

 259	1.002592800000985e-05
	-3.077331189279617e-01
	-8.833399229763844e-01
	-1.401835933913516e-01

 260	1.002602800000985e-05
	-3.080119557611264e-01
	-8.816857459499680e-01
	-1.412150758638018e-01

 261	1.002612800000985e-05
	-3.083080011514126e-01
	-8.800243401422907e-01
	-1.422334345139444e-01

 262	1.002622800000985e-05
	-3.086218630607155e-01
	-8.783555327292906e-01
	-1.432386772853085e-01

 263	1.002632800000986e-05
	-3.089541700482052e-01
	-8.766791242601362e-01
	-1.442308082112471e-01

 264	1.002642800000986e-05
	-3.093055712993271e-01
	-8.749948886261820e-01
	-1.452098272714024e-01

 265	1.002652800000986e-05
	-3.096767366029193e-01
	-8.733025730477344e-01
	-1.461757302492632e-01

 266	1.002662800000986e-05
	-3.100683562717291e-01
	-8.716018980795206e-01
	-1.471285085911025e-01

 267	1.002672800000986e-05
	-3.104811410049995e-01
	-8.698925576390562e-01
	-1.480681492666074e-01

 268	1.002682800000986e-05
	-3.109158216895677e-01
	-8.681742190597539e-01
	-1.489946346315283e-01

 269	1.002692800000986e-05
	-3.113731491363091e-01
	-8.664465231707028e-01
	-1.499079422926957e-01

 270	1.002702800000986e-05
	-3.118538937513473e-01
	-8.647090844072737e-01
	-1.508080449757654e-01

 271	1.002712800000986e-05
	-3.123588451389279e-01
	-8.629614909539214e-01
	-1.516949103960767e-01

 272	1.002722800000986e-05
	-3.128888116347846e-01
	-8.612033049219294e-01
	-1.525685011330151e-01

 273	1.002732800000986e-05
	-3.134446197693517e-01
	-8.594340625649050e-01
	-1.534287745082801e-01

 274	1.002742800000986e-05
	-3.140271136599501e-01
	-8.576532745339481e-01
	-1.542756824684814e-01

 275	1.002752800000986e-05
	-3.146371543318474e-01
	-8.558604261745715e-01
	-1.551091714724739e-01

 276	1.002762800000986e-05
	-3.152756189697377e-01
	-8.540549778682983e-01
	-1.559291823838529e-01

 277	1.002772800000986e-05
	-3.159434000995266e-01
	-8.522363654195504e-01
	-1.567356503690407e-01

 278	1.002782800000986e-05
	-3.166414047028749e-01
	-8.504040004899615e-01
	-1.575285048013777e-01

 279	1.002792800000986e-05
	-3.173705532675648e-01
	-8.485572710820638e-01
	-1.583076691716254e-01

 280	1.002802800000986e-05
	-3.181317787760086e-01
	-8.466955420726767e-01
	-1.590730610052900e-01

 281	1.002812800000986e-05
	-3.189260256359241e-01
	-8.448181557969945e-01
	-1.598245917871433e-01

 282	1.002822800000986e-05
	-3.197542485583907e-01
	-8.429244326845651e-01
	-1.605621668933139e-01

 283	1.002832800000986e-05
	-3.206174113872421e-01
	-8.410136719462350e-01
	-1.612856855312890e-01

 284	1.002842800000986e-05
	-3.215164858867378e-01
	-8.390851523130738e-01
	-1.619950406881427e-01

 285	1.002852800000986e-05
	-3.224524504931823e-01
	-8.371381328261417e-01
	-1.626901190872836e-01

 286	1.002862800000986e-05
	-3.234262890375214e-01
	-8.351718536765022e-01
	-1.633708011539734e-01

 287	1.002872800000986e-05
	-3.244389894460972e-01
	-8.331855370941492e-01
	-1.640369609898298e-01

 288	1.002882800000986e-05
	-3.254915424276432e-01
	-8.311783882848305e-01
	-1.646884663564943e-01

 289	1.002892800000986e-05
	-3.265849401540299e-01
	-8.291495964124667e-01
	-1.653251786686116e-01

 290	1.002902800000986e-05
	-3.277201749425790e-01
	-8.270983356247923e-01
	-1.659469529961970e-01

 291	1.002912800000986e-05
	-3.288982379492697e-01
	-8.250237661208331e-01
	-1.665536380764534e-01

 292	1.002922800000986e-05
	-3.301201178796173e-01
	-8.229250352562799e-01
	-1.671450763350419e-01

 293	1.002932800000986e-05
	-3.313867997258798e-01
	-8.208012786845135e-01
	-1.677211039167545e-01

 294	1.002942800000986e-05
	-3.326992635382219e-01
	-8.186516215300739e-01
	-1.682815507255175e-01

 295	1.002952800000986e-05
	-3.340584832368242e-01
	-8.164751795910824e-01
	-1.688262404735861e-01

 296	1.002962800000986e-05
	-3.354654254718703e-01
	-8.142710605674272e-01
	-1.693549907397598e-01

 297	1.002972800000986e-05
	-3.369210485368974e-01
	-8.120383653106511e-01
	-1.698676130364176e-01

 298	1.002982800000986e-05
	-3.384263013420496e-01
	-8.097761890932621e-01
	-1.703639128851200e-01

 299	1.002992800000986e-05
	-3.399821224503191e-01
	-8.074836228926304e-01
	-1.708436899005026e-01

 300	1.003002800000986e-05
	-3.415894391810674e-01